 vasp.5.3.5 31Mar14 (build Sep 04 2015 12:31:23) complex                        
  
 executed on             LinuxIFC date 2015.11.17  18:41:53
 running on   16 total cores
 distrk:  each k-point on   16 cores,    1 groups
 distr:  one band on NCORES_PER_BAND=   4 cores,    4 groups


--------------------------------------------------------------------------------------------------------


 INCAR:
 POTCAR:   PAW_PBE Li_sv 23Jan2001                
 POTCAR:   PAW_PBE Mn 06Sep2000                   
 POTCAR:   PAW_PBE O_s 07Sep2000                  
 POTCAR:   PAW_PBE Li_sv 23Jan2001                
   VRHFIN =Li: 1s2s2p                                                           
   LEXCH  = PE                                                                  
   EATOM  =   202.7858 eV,   14.9043 Ry                                         
                                                                                
   TITEL  = PAW_PBE Li_sv 23Jan2001                                             
   LULTRA =        F    use ultrasoft PP ?                                      
   IUNSCR =        0    unscreen: 0-lin 1-nonlin 2-no                           
   RPACOR =     .000    partial core radius                                     
   POMASS =    7.010; ZVAL   =    3.000    mass and valenz                      
   RCORE  =    2.050    outmost cutoff radius                                   
   RWIGS  =    2.050; RWIGS  =    1.085    wigner-seitz radius (au A)           
   ENMAX  =  271.649; ENMIN  =  203.737 eV                                      
   ICORE  =        2    local potential                                         
   LCOR   =        T    correct aug charges                                     
   LPAW   =        T    paw PP                                                  
   EAUG   =  428.394                                                            
   RMAX   =    2.797    core radius for proj-oper                               
   RAUG   =    1.300    factor for augmentation sphere                          
   RDEP   =    2.094    radius for radial grids                                 
   RDEPT  =    1.550    core radius for aug-charge                              
   QCUT   =   -4.468; QGAM   =    8.937    optimization parameters              
                                                                                
   Description                                                                  
     l     E      TYP  RCUT    TYP  RCUT                                        
     0   .000     23  1.550                                                     
     0   .000     23  2.050                                                     
     0   .000     23  1.550                                                     
     0   .000     23  2.050                                                     
     1  -.200     23  2.050                                                     
     1  1.500     23  2.050                                                     
     2   .000      7  1.550                                                     
  local pseudopotential read in
  atomic valenz-charges read in
  non local Contribution for L=           0  read in
    real space projection operators read in
  non local Contribution for L=           0  read in
    real space projection operators read in
  non local Contribution for L=           1  read in
    real space projection operators read in
  non local Contribution for L=           1  read in
    real space projection operators read in
    PAW grid and wavefunctions read in
 
   number of l-projection  operators is LMAX  =           4
   number of lm-projection operators is LMMAX =           8
 
 POTCAR:   PAW_PBE Mn 06Sep2000                   
   VRHFIN =Mn: d6 s1                                                            
   LEXCH  = PE                                                                  
   EATOM  =   416.8732 eV,   30.6393 Ry                                         
                                                                                
   TITEL  = PAW_PBE Mn 06Sep2000                                                
   LULTRA =        F    use ultrasoft PP ?                                      
   IUNSCR =        1    unscreen: 0-lin 1-nonlin 2-no                           
   RPACOR =    2.000    partial core radius                                     
   POMASS =   54.938; ZVAL   =    7.000    mass and valenz                      
   RCORE  =    2.300    outmost cutoff radius                                   
   RWIGS  =    2.500; RWIGS  =    1.323    wigner-seitz radius (au A)           
   ENMAX  =  269.865; ENMIN  =  202.399 eV                                      
   RCLOC  =    1.725    cutoff for local pot                                    
   LCOR   =        T    correct aug charges                                     
   LPAW   =        T    paw PP                                                  
   EAUG   =  500.711                                                            
   DEXC   =    -.071                                                            
   RMAX   =    2.807    core radius for proj-oper                               
   RAUG   =    1.300    factor for augmentation sphere                          
   RDEP   =    2.338    radius for radial grids                                 
   QCUT   =   -4.454; QGAM   =    8.907    optimization parameters              
                                                                                
   Description                                                                  
     l     E      TYP  RCUT    TYP  RCUT                                        
     2   .000     23  2.300                                                     
     2   .000     23  2.300                                                     
     0   .000     23  2.300                                                     
     0   .000     23  2.300                                                     
     1  -.200     23  2.300                                                     
     1  1.500     23  2.300                                                     
     3   .000      7   .000                                                     
  local pseudopotential read in
  partial core-charges read in
  atomic valenz-charges read in
  non local Contribution for L=           2  read in
    real space projection operators read in
  non local Contribution for L=           2  read in
    real space projection operators read in
  non local Contribution for L=           0  read in
    real space projection operators read in
  non local Contribution for L=           0  read in
    real space projection operators read in
  non local Contribution for L=           1  read in
    real space projection operators read in
  non local Contribution for L=           1  read in
    real space projection operators read in
    PAW grid and wavefunctions read in
 
   number of l-projection  operators is LMAX  =           6
   number of lm-projection operators is LMMAX =          18
 
 POTCAR:   PAW_PBE O_s 07Sep2000                  
   VRHFIN =O: s2p4                                                              
   LEXCH  = PE                                                                  
   EATOM  =   432.2909 eV,   31.7725 Ry                                         
                                                                                
   TITEL  = PAW_PBE O_s 07Sep2000                                               
   LULTRA =        F    use ultrasoft PP ?                                      
   IUNSCR =        0    unscreen: 0-lin 1-nonlin 2-no                           
   RPACOR =     .000    partial core radius                                     
   POMASS =   16.000; ZVAL   =    6.000    mass and valenz                      
   RCORE  =    1.850    outmost cutoff radius                                   
   RWIGS  =    1.700; RWIGS  =     .900    wigner-seitz radius (au A)           
   ENMAX  =  282.841; ENMIN  =  212.131 eV                                      
   RCLOC  =     .804    cutoff for local pot                                    
   LCOR   =        T    correct aug charges                                     
   LPAW   =        T    paw PP                                                  
   EAUG   =  412.352                                                            
   DEXC   =     .000                                                            
   RMAX   =    2.742    core radius for proj-oper                               
   RAUG   =    1.300    factor for augmentation sphere                          
   RDEP   =    1.878    radius for radial grids                                 
   QCUT   =   -4.559; QGAM   =    9.119    optimization parameters              
                                                                                
   Description                                                                  
     l     E      TYP  RCUT    TYP  RCUT                                        
     0   .000     23  1.500                                                     
     0   .000     23  1.500                                                     
     1   .000     23  1.850                                                     
     1   .000     23  1.850                                                     
     2   .000      7   .000                                                     
  local pseudopotential read in
  atomic valenz-charges read in
  non local Contribution for L=           0  read in
    real space projection operators read in
  non local Contribution for L=           0  read in
    real space projection operators read in
  non local Contribution for L=           1  read in
    real space projection operators read in
  non local Contribution for L=           1  read in
    real space projection operators read in
    PAW grid and wavefunctions read in
 
   number of l-projection  operators is LMAX  =           4
   number of lm-projection operators is LMMAX =           8
 
 Optimization of the real space projectors (new method)

 maximal supplied QI-value         = 18.33
 optimisation between [QCUT,QGAM] = [  9.53, 19.25] = [ 25.44,103.73] Ry 
 Optimized for a Real-space Cutoff    1.23 Angstroem

   l    n(q)    QCUT    max X(q) W(low)/X(q) W(high)/X(q)  e(spline) 
   0      7     9.532     5.519    0.23E-04    0.36E-04    0.20E-07
   0      7     9.532    24.272    0.37E-04    0.18E-03    0.46E-07
   1      6     9.532     4.148    0.35E-03    0.14E-03    0.20E-06
   1      6     9.532    11.043    0.12E-02    0.47E-04    0.25E-06
 Optimization of the real space projectors (new method)

 maximal supplied QI-value         = 16.25
 optimisation between [QCUT,QGAM] = [  9.59, 19.18] = [ 25.75,102.98] Ry 
 Optimized for a Real-space Cutoff    1.38 Angstroem

   l    n(q)    QCUT    max X(q) W(low)/X(q) W(high)/X(q)  e(spline) 
   2      7     9.588     4.144    0.18E-03    0.18E-03    0.31E-07
   2      7     9.588    35.116    0.18E-02    0.10E-02    0.29E-06
   0      8     9.588    20.431    0.30E-04    0.49E-04    0.54E-08
   0      8     9.588    61.159    0.21E-03    0.43E-03    0.51E-07
   1      7     9.588     6.695    0.16E-03    0.38E-04    0.23E-07
   1      7     9.588     8.642    0.64E-03    0.10E-03    0.82E-07
 Optimization of the real space projectors (new method)

 maximal supplied QI-value         = 20.41
 optimisation between [QCUT,QGAM] = [  9.59, 19.18] = [ 25.77,103.06] Ry 
 Optimized for a Real-space Cutoff    1.12 Angstroem

   l    n(q)    QCUT    max X(q) W(low)/X(q) W(high)/X(q)  e(spline) 
   0      6     9.592     3.225    0.15E-03    0.90E-04    0.26E-07
   0      6     9.592    31.433    0.19E-02    0.60E-03    0.75E-07
   1      6     9.592     3.918    0.12E-03    0.60E-03    0.45E-07
   1      6     9.592    28.387    0.47E-03    0.20E-02    0.67E-07
 PAW_PBE Li_sv 23Jan2001                :
 energy of atom  1       EATOM= -202.7858
 kinetic energy error for atom=    0.0052 (will be added to EATOM!!)
 PAW_PBE Mn 06Sep2000                   :
 energy of atom  2       EATOM= -416.8732
 kinetic energy error for atom=    0.0184 (will be added to EATOM!!)
 PAW_PBE O_s 07Sep2000                  :
 energy of atom  3       EATOM= -432.2909
 kinetic energy error for atom=    0.0187 (will be added to EATOM!!)
 
 
 POSCAR: Li1 Mn2 O4                              
  positions in direct lattice
  velocities in cartesian coordinates
 exchange correlation table for  LEXCH =        8
   RHO(1)=    0.500       N(1)  =     2000
   RHO(2)=  100.500       N(2)  =     4000
 


--------------------------------------------------------------------------------------------------------


 ion  position               nearest neighbor table
   1  0.125  0.125  0.125-  43 1.98  46 1.98  54 1.98  25 1.98
   2  0.875  0.875  0.875-  26 1.98  44 1.98  45 1.98  53 1.98
   3  0.625  0.125  0.625-  27 1.98  38 1.98  49 1.98  48 1.98
   4  0.375  0.875  0.375-  47 1.98  37 1.98  28 1.98  50 1.98
   5  0.125  0.625  0.625-  29 1.98  34 1.98  39 1.98  51 1.98
   6  0.875  0.375  0.375-  52 1.98  33 1.98  40 1.98  30 1.98
   7  0.625  0.625  0.125-  31 1.98  36 1.98  55 1.98  41 1.98
   8  0.375  0.375  0.875-  42 1.98  35 1.98  32 1.98  56 1.98
   9  0.500  0.500  0.500-  41 1.97  48 1.97  51 1.97  42 1.97  47 1.97  52 1.97  17 2.93  18 2.93
                            19 2.93  20 2.93  22 2.93  23 2.93
  10  0.250  0.750  0.000-  36 1.97  44 1.97  50 1.97  39 1.97  54 1.97  32 1.97  13 2.93  15 2.93
                            16 2.93  20 2.93  21 2.93  23 2.93
  11  0.750  0.250  0.000-  31 1.97  40 1.97  53 1.97  49 1.97  43 1.97  35 1.97  12 2.93  14 2.93
                            16 2.93  19 2.93  21 2.93  22 2.93
  12  0.750  0.000  0.250-  38 1.97  40 1.97  53 1.97  46 1.97  55 1.97  28 1.97  11 2.93  15 2.93
                            16 2.93  18 2.93  22 2.93  24 2.93
  13  0.250  0.000  0.750-  27 1.97  45 1.97  56 1.97  54 1.97  39 1.97  37 1.97  10 2.93  14 2.93
                            16 2.93  17 2.93  23 2.93  24 2.93
  14  0.000  0.250  0.750-  34 1.97  45 1.97  56 1.97  49 1.97  43 1.97  30 1.97  11 2.93  13 2.93
                            17 2.93  19 2.93  21 2.93  24 2.93
  15  0.000  0.750  0.250-  29 1.97  44 1.97  50 1.97  46 1.97  55 1.97  33 1.97  10 2.93  12 2.93
                            18 2.93  20 2.93  21 2.93  24 2.93
  16  0.500  0.000  0.000-  54 1.97  35 1.97  28 1.97  36 1.97  27 1.97  53 1.97  10 2.93  11 2.93
                            12 2.93  13 2.93  22 2.93  23 2.93
  17  0.250  0.250  0.500-  30 1.97  37 1.97  25 1.97  48 1.97  51 1.97  56 1.97   9 2.93  13 2.93
                            14 2.93  20 2.93  22 2.93  24 2.93
  18  0.750  0.750  0.500-  55 1.97  47 1.97  52 1.97  26 1.97  38 1.97  29 1.97   9 2.93  12 2.93
                            15 2.93  19 2.93  23 2.93  24 2.93
  19  0.750  0.500  0.750-  49 1.97  42 1.97  26 1.97  52 1.97  34 1.97  31 1.97   9 2.93  11 2.93
                            14 2.93  18 2.93  21 2.93  23 2.93
  20  0.250  0.500  0.250-  32 1.97  33 1.97  25 1.97  41 1.97  51 1.97  50 1.97   9 2.93  10 2.93
                            15 2.93  17 2.93  21 2.93  22 2.93
  21  0.000  0.500  0.000-  43 1.97  33 1.97  32 1.97  34 1.97  31 1.97  44 1.97  10 2.93  11 2.93
                            14 2.93  15 2.93  19 2.93  20 2.93
  22  0.500  0.250  0.250-  28 1.97  35 1.97  25 1.97  41 1.97  48 1.97  40 1.97   9 2.93  11 2.93
                            12 2.93  16 2.93  17 2.93  20 2.93
  23  0.500  0.750  0.750-  39 1.97  26 1.97  42 1.97  47 1.97  36 1.97  27 1.97   9 2.93  10 2.93
                            13 2.93  16 2.93  18 2.93  19 2.93
  24  0.000  0.000  0.500-  46 1.97  37 1.97  30 1.97  38 1.97  29 1.97  45 1.97  12 2.93  13 2.93
                            14 2.93  15 2.93  17 2.93  18 2.93
  25  0.263  0.263  0.263-  17 1.97  20 1.97  22 1.97   1 1.98
  26  0.737  0.737  0.737-  18 1.97  19 1.97  23 1.97   2 1.98
  27  0.487  0.987  0.763-  13 1.97  16 1.97  23 1.97   3 1.98
  28  0.513  0.013  0.237-  16 1.97  22 1.97  12 1.97   4 1.98
  29  0.987  0.763  0.487-  15 1.97  18 1.97  24 1.97   5 1.98
  30  0.013  0.237  0.513-  17 1.97  24 1.97  14 1.97   6 1.98
  31  0.763  0.487  0.987-  11 1.97  19 1.97  21 1.97   7 1.98
  32  0.237  0.513  0.013-  20 1.97  21 1.97  10 1.97   8 1.98
  33  0.013  0.513  0.237-  20 1.97  21 1.97  15 1.97   6 1.98
  34  0.987  0.487  0.763-  14 1.97  19 1.97  21 1.97   5 1.98
  35  0.513  0.237  0.013-  16 1.97  22 1.97  11 1.97   8 1.98
  36  0.487  0.763  0.987-  10 1.97  16 1.97  23 1.97   7 1.98
  37  0.237  0.013  0.513-  17 1.97  24 1.97  13 1.97   4 1.98
  38  0.763  0.987  0.487-  12 1.97  18 1.97  24 1.97   3 1.98
  39  0.263  0.763  0.763-  23 1.97  13 1.97  10 1.97   5 1.98
  40  0.737  0.237  0.237-  11 1.97  12 1.97  22 1.97   6 1.98
  41  0.487  0.487  0.263-   9 1.97  20 1.97  22 1.97   7 1.98
  42  0.513  0.513  0.737-   9 1.97  19 1.97  23 1.97   8 1.98
  43  0.987  0.263  0.987-  21 1.97  14 1.97  11 1.97   1 1.98
  44  0.013  0.737  0.013-  10 1.97  15 1.97  21 1.97   2 1.98
  45  0.013  0.013  0.737-  13 1.97  14 1.97  24 1.97   2 1.98
  46  0.987  0.987  0.263-  24 1.97  15 1.97  12 1.97   1 1.98
  47  0.513  0.737  0.513-   9 1.97  18 1.97  23 1.97   4 1.98
  48  0.487  0.263  0.487-   9 1.97  17 1.97  22 1.97   3 1.98
  49  0.763  0.263  0.763-  19 1.97  14 1.97  11 1.97   3 1.98
  50  0.237  0.737  0.237-  10 1.97  15 1.97  20 1.97   4 1.98
  51  0.263  0.487  0.487-   9 1.97  17 1.97  20 1.97   5 1.98
  52  0.737  0.513  0.513-   9 1.97  18 1.97  19 1.97   6 1.98
  53  0.737  0.013  0.013-  11 1.97  12 1.97  16 1.97   2 1.98
  54  0.263  0.987  0.987-  16 1.97  13 1.97  10 1.97   1 1.98
  55  0.763  0.763  0.263-  18 1.97  15 1.97  12 1.97   7 1.98
  56  0.237  0.237  0.737-  13 1.97  14 1.97  17 1.97   8 1.98
 
  LATTYP: Found a simple cubic cell.
 ALAT       =     8.2877623332
  
  Lattice vectors:
  
 A1 = (   8.2877623332,   0.0000000000,   0.0000000000)
 A2 = (   0.0000000000,   8.2877623332,   0.0000000000)
 A3 = (   0.0000000000,   0.0000000000,   8.2877623332)


Analysis of symmetry for initial positions (statically):
=====================================================================
 Subroutine PRICEL returns following result:
 
  LATTYP: Found a face centered cubic cell.
 ALAT       =     8.2877623332
  
  Lattice vectors:
  
 A1 = (   4.1438811666,   4.1438811666,   0.0000000000)
 A2 = (   4.1438811666,   0.0000000000,  -4.1438811666)
 A3 = (   0.0000000000,   4.1438811666,  -4.1438811666)
 
   4 primitive cells build up your supercell.
 

 Routine SETGRP: Setting up the symmetry group for a 
 simple cubic supercell.


 Subroutine GETGRP returns: Found 48 space group operations
 (whereof 12 operations were pure point group operations)
 out of a pool of 48 trial point group operations.


The static configuration has the point symmetry D_3d.
 The point group associated with its full space group is O_h .


Analysis of symmetry for dynamics (positions and initial velocities):
=====================================================================
 Subroutine PRICEL returns following result:
 
  LATTYP: Found a face centered cubic cell.
 ALAT       =     8.2877623332
  
  Lattice vectors:
  
 A1 = (   4.1438811666,   4.1438811666,   0.0000000000)
 A2 = (   4.1438811666,   0.0000000000,  -4.1438811666)
 A3 = (   0.0000000000,   4.1438811666,  -4.1438811666)
 
   4 primitive cells build up your supercell.
 

 Routine SETGRP: Setting up the symmetry group for a 
 simple cubic supercell.


 Subroutine GETGRP returns: Found 48 space group operations
 (whereof 12 operations were pure point group operations)
 out of a pool of 48 trial point group operations.


The dynamic configuration has the point symmetry D_3d.
 The point group associated with its full space group is O_h .


Analysis of magnetic symmetry:
=====================================================================
 Subroutine PRICEL returns following result:
 
  LATTYP: Found a face centered cubic cell.
 ALAT       =     8.2877623332
  
  Lattice vectors:
  
 A1 = (   4.1438811666,   4.1438811666,   0.0000000000)
 A2 = (   4.1438811666,   0.0000000000,  -4.1438811666)
 A3 = (   0.0000000000,   4.1438811666,  -4.1438811666)
 
   4 primitive cells build up your supercell.
 

 Subroutine MAGSYM returns: Found 48 space group operations
 (whereof 12 operations were pure point group operations)
 out of a pool of 48 trial space group operations
 (whereof 12 operations were pure point group operations)
 and found also     4 'primitive' translations


The magnetic configuration has the point symmetry D_3d.
 The point group associated with its full space group is O_h .
 
 
 KPOINTS: Automatic mesh                          

Automatic generation of k-mesh.
Space group operators:
 irot       det(A)        alpha          n_x          n_y          n_z        tau_x        tau_y        tau_z
    1     1.000000     0.000002     1.000000     0.000000     0.000000     0.000000     0.000000    -0.000000
    2    -1.000000     0.000002     1.000000     0.000000     0.000000     0.000000     0.000000    -0.000000
    3     1.000000   120.000000    -0.577350    -0.577350    -0.577350     0.000000     0.000000    -0.000000
    4    -1.000000   120.000000    -0.577350    -0.577350    -0.577350     0.000000     0.000000    -0.000000
    5     1.000000   120.000000     0.577350     0.577350     0.577350     0.000000     0.000000    -0.000000
    6    -1.000000   120.000000     0.577350     0.577350     0.577350     0.000000     0.000000    -0.000000
    7     1.000000   179.999999     0.000000    -0.707107     0.707107     0.000000     0.000000    -0.000000
    8    -1.000000   179.999999     0.000000    -0.707107     0.707107     0.000000     0.000000    -0.000000
    9     1.000000   179.999999     0.707107    -0.707107     0.000000     0.000000     0.000000    -0.000000
   10    -1.000000   179.999999     0.707107    -0.707107     0.000000     0.000000     0.000000    -0.000000
   11     1.000000   179.999999     0.707107     0.000000    -0.707107     0.000000     0.000000    -0.000000
   12    -1.000000   179.999999     0.707107     0.000000    -0.707107     0.000000     0.000000    -0.000000
   13     1.000000    90.000000     0.000000     0.000000    -1.000000     0.500000     0.250000    -0.250000
   14    -1.000000    90.000000     0.000000     0.000000    -1.000000     0.500000     0.250000    -0.250000
   15     1.000000   179.999999     0.000000     0.707107     0.707107     0.500000     0.250000    -0.250000
   16    -1.000000   179.999999     0.000000     0.707107     0.707107     0.500000     0.250000    -0.250000
   17     1.000000    90.000000     0.000000     1.000000     0.000000     0.500000     0.250000    -0.250000
   18    -1.000000    90.000000     0.000000     1.000000     0.000000     0.500000     0.250000    -0.250000
   19     1.000000   179.999999     0.000000     0.000000     1.000000     0.250000     0.250000    -0.000000
   20    -1.000000   179.999999     0.000000     0.000000     1.000000     0.250000     0.250000    -0.000000
   21     1.000000   120.000000    -0.577350     0.577350     0.577350     0.250000     0.250000    -0.000000
   22    -1.000000   120.000000    -0.577350     0.577350     0.577350     0.250000     0.250000    -0.000000
   23     1.000000   120.000000    -0.577350     0.577350    -0.577350     0.250000     0.250000    -0.000000
   24    -1.000000   120.000000    -0.577350     0.577350    -0.577350     0.250000     0.250000    -0.000000
   25     1.000000    90.000000     0.000000     0.000000     1.000000     0.250000     0.500000    -0.250000
   26    -1.000000    90.000000     0.000000     0.000000     1.000000     0.250000     0.500000    -0.250000
   27     1.000000    90.000000    -1.000000     0.000000     0.000000     0.250000     0.500000    -0.250000
   28    -1.000000    90.000000    -1.000000     0.000000     0.000000     0.250000     0.500000    -0.250000
   29     1.000000   179.999999     0.707107     0.000000     0.707107     0.250000     0.500000    -0.250000
   30    -1.000000   179.999999     0.707107     0.000000     0.707107     0.250000     0.500000    -0.250000
   31     1.000000   120.000000     0.577350    -0.577350     0.577350     0.500000     0.250000    -0.250000
   32    -1.000000   120.000000     0.577350    -0.577350     0.577350     0.500000     0.250000    -0.250000
   33     1.000000   120.000000    -0.577350    -0.577350     0.577350     0.500000     0.250000    -0.250000
   34    -1.000000   120.000000    -0.577350    -0.577350     0.577350     0.500000     0.250000    -0.250000
   35     1.000000   179.999999     1.000000     0.000000     0.000000     0.500000     0.250000    -0.250000
   36    -1.000000   179.999999     1.000000     0.000000     0.000000     0.500000     0.250000    -0.250000
   37     1.000000    90.000000     0.000000    -1.000000     0.000000     0.250000     0.250000    -0.000000
   38    -1.000000    90.000000     0.000000    -1.000000     0.000000     0.250000     0.250000    -0.000000
   39     1.000000   179.999999     0.707107     0.707107     0.000000     0.250000     0.250000    -0.000000
   40    -1.000000   179.999999     0.707107     0.707107     0.000000     0.250000     0.250000    -0.000000
   41     1.000000    90.000000     1.000000     0.000000     0.000000     0.250000     0.250000    -0.000000
   42    -1.000000    90.000000     1.000000     0.000000     0.000000     0.250000     0.250000    -0.000000
   43     1.000000   120.000000     0.577350    -0.577350    -0.577350     0.250000     0.500000    -0.250000
   44    -1.000000   120.000000     0.577350    -0.577350    -0.577350     0.250000     0.500000    -0.250000
   45     1.000000   179.999999     0.000000     1.000000     0.000000     0.250000     0.500000    -0.250000
   46    -1.000000   179.999999     0.000000     1.000000     0.000000     0.250000     0.500000    -0.250000
   47     1.000000   120.000000     0.577350     0.577350    -0.577350     0.250000     0.500000    -0.250000
   48    -1.000000   120.000000     0.577350     0.577350    -0.577350     0.250000     0.500000    -0.250000
 
 Subroutine IBZKPT returns following result:
 ===========================================
 
 Found      1 irreducible k-points:
 
 Following reciprocal coordinates:
            Coordinates               Weight
  0.000000  0.000000  0.000000      1.000000
 
 Following cartesian coordinates:
            Coordinates               Weight
  0.000000  0.000000  0.000000      1.000000
 


--------------------------------------------------------------------------------------------------------




 Dimension of arrays:
   k-points           NKPTS =      1   k-points in BZ     NKDIM =      1   number of bands    NBANDS=    228
   number of dos      NEDOS =    301   number of ions     NIONS =     56
   non local maximal  LDIM  =      6   non local SUM 2l+1 LMDIM =     18
   total plane-waves  NPLWV =  64000
   max r-space proj   IRMAX =   1291   max aug-charges    IRDMAX=   1943
   dimension x,y,z NGX =    40 NGY =   40 NGZ =   40
   dimension x,y,z NGXF=    60 NGYF=   60 NGZF=   60
   support grid    NGXF=    60 NGYF=   60 NGZF=   60
   ions per type =               8  16  32
 NGX,Y,Z   is equivalent  to a cutoff of   8.02,  8.02,  8.02 a.u.
 NGXF,Y,Z  is equivalent  to a cutoff of  12.04, 12.04, 12.04 a.u.


 I would recommend the setting:
   dimension x,y,z NGX =    38 NGY =   38 NGZ =   38
 SYSTEM =  LiMn2O4                                 
 POSCAR =  Li1 Mn2 O4                              

 Startparameter for this run:
   NWRITE =      2    write-flag & timer
   PREC   = medium    normal or accurate (medium, high low for compatibility)
   ISTART =      0    job   : 0-new  1-cont  2-samecut
   ICHARG =      2    charge: 1-file 2-atom 10-const
   ISPIN  =      2    spin polarized calculation?
   LNONCOLLINEAR =      F non collinear calculations
   LSORBIT =      F    spin-orbit coupling
   INIWAV =      1    electr: 0-lowe 1-rand  2-diag
   LASPH  =      F    aspherical Exc in radial PAW
   METAGGA=      F    non-selfconsistent MetaGGA calc.

 Electronic Relaxation 1
   ENCUT  =  355.0 eV  26.09 Ry    5.11 a.u.  12.73 12.73 12.73*2*pi/ulx,y,z
   ENINI  =  355.0     initial cutoff
   ENAUG  =  500.7 eV  augmentation charge cutoff
   NELM   =     60;   NELMIN=  2; NELMDL=  0     # of ELM steps 
   EDIFF  = 0.1E-03   stopping-criterion for ELM
   LREAL  =      T    real-space projection
   NLSPLINE    = F    spline interpolate recip. space projectors
   LCOMPAT=      F    compatible to vasp.4.4
   GGA_COMPAT  = T    GGA compatible to vasp.4.4-vasp.4.6
   LMAXPAW     = -100 max onsite density
   LMAXMIX     =    2 max onsite mixed and CHGCAR
   VOSKOWN=      0    Vosko Wilk Nusair interpolation
   ROPT   =   -0.00200  -0.00200  -0.00200
 Ionic relaxation
   EDIFFG = 0.1E-02   stopping-criterion for IOM
   NSW    =    100    number of steps for IOM
   NBLOCK =      1;   KBLOCK =    100    inner block; outer block 
   IBRION =      2    ionic relax: 0-MD 1-quasi-New 2-CG
   NFREE  =      1    steps in history (QN), initial steepest desc. (CG)
   ISIF   =      3    stress and relaxation
   IWAVPR =     11    prediction:  0-non 1-charg 2-wave 3-comb
   ISYM   =      2    0-nonsym 1-usesym 2-fastsym
   LCORR  =      T    Harris-Foulkes like correction to forces

   POTIM  = 0.5000    time-step for ionic-motion
   TEIN   =    0.0    initial temperature
   TEBEG  =    0.0;   TEEND  =   0.0 temperature during run
   SMASS  =  -3.00    Nose mass-parameter (am)
   estimated Nose-frequenzy (Omega)   =  0.10E-29 period in steps =****** mass=  -0.157E-26a.u.
   SCALEE = 1.0000    scale energy and forces
   NPACO  =    256;   APACO  = 16.0  distance and # of slots for P.C.
   PSTRESS=    0.0 pullay stress

  Mass of Ions in am
   POMASS =   7.01 54.94 16.00
  Ionic Valenz
   ZVAL   =   3.00  7.00  6.00
  Atomic Wigner-Seitz radii
   RWIGS  =  -1.00 -1.00 -1.00
  virtual crystal weights 
   VCA    =   1.00  1.00  1.00
   NELECT =     328.0000    total number of electrons
   NUPDOWN=      -1.0000    fix difference up-down

 DOS related values:
   EMIN   =  10.00;   EMAX   =-10.00  energy-range for DOS
   EFERMI =   0.00
   ISMEAR =     1;   SIGMA  =   0.20  broadening in eV -4-tet -1-fermi 0-gaus

 Electronic relaxation 2 (details)
   IALGO  =     68    algorithm
   LDIAG  =      T    sub-space diagonalisation (order eigenvalues)
   LSUBROT=      F    optimize rotation matrix (better conditioning)
   TURBO    =      0    0=normal 1=particle mesh
   IRESTART =      0    0=no restart 2=restart with 2 vectors
   NREBOOT  =      0    no. of reboots
   NMIN     =      0    reboot dimension
   EREF     =   0.00    reference energy to select bands
   IMIX   =      4    mixing-type and parameters
     AMIX     =   0.40;   BMIX     =  1.00
     AMIX_MAG =   1.60;   BMIX_MAG =  1.00
     AMIN     =   0.10
     WC   =   100.;   INIMIX=   1;  MIXPRE=   1;  MAXMIX= -45

 Intra band minimization:
   WEIMIN = 0.0010     energy-eigenvalue tresh-hold
   EBREAK =  0.11E-06  absolut break condition
   DEPER  =   0.30     relativ break condition  

   TIME   =   0.40     timestep for ELM

  volume/ion in A,a.u.               =      10.17        68.60
  Fermi-wavevector in a.u.,A,eV,Ry     =   1.362267  2.574311 25.249293  1.855771
  Thomas-Fermi vector in A             =   2.488771
 
 Write flags
   LWAVE  =      F    write WAVECAR
   LCHARG =      F    write CHGCAR
   LVTOT  =      F    write LOCPOT, total local potential
   LVHAR  =      F    write LOCPOT, Hartree potential only
   LELF   =      F    write electronic localiz. function (ELF)
   LORBIT =      0    0 simple, 1 ext, 2 COOP (PROOUT)


 Dipole corrections
   LMONO  =      F    monopole corrections only (constant potential shift)
   LDIPOL =      F    correct potential (dipole corrections)
   IDIPOL =      0    1-x, 2-y, 3-z, 4-all directions 
   EPSILON=  1.0000000 bulk dielectric constant

 Exchange correlation treatment:
   GGA     =    --    GGA type
   LEXCH   =     8    internal setting for exchange type
   VOSKOWN=      0    Vosko Wilk Nusair interpolation
   LHFCALC =     F    Hartree Fock is set to
   LHFONE  =     F    Hartree Fock one center treatment
   AEXX    =    0.0000 exact exchange contribution

 Linear response parameters
   LEPSILON=     F    determine dielectric tensor
   LRPA    =     F    only Hartree local field effects (RPA)
   LNABLA  =     F    use nabla operator in PAW spheres
   LVEL    =     F    velocity operator in full k-point grid
   LINTERFAST=   F  fast interpolation
   KINTER  =     0    interpolate to denser k-point grid
   CSHIFT  =0.1000    complex shift for real part using Kramers Kronig
   OMEGAMAX=  -1.0    maximum frequency
   DEG_THRESHOLD= 0.2000000E-02 threshold for treating states as degnerate
   RTIME   =    0.100 relaxation time in fs

 Orbital magnetization related:
   ORBITALMAG=     F  switch on orbital magnetization
   LCHIMAG   =     F  perturbation theory with respect to B field
   DQ        =  0.001000  dq finite difference perturbation B field



--------------------------------------------------------------------------------------------------------


 conjugate gradient relaxation of ions
 charge density and potential will be updated during run
 spin polarized calculation
 RMM-DIIS sequential band-by-band and
  variant of blocked Davidson during initial phase
 perform sub-space diagonalisation
    before iterative eigenvector-optimisation
 modified Broyden-mixing scheme, WC =      100.0
 initial mixing is a Kerker type mixing with AMIX =  0.4000 and BMIX =      1.0000
 Hartree-type preconditioning will be used
 using additional bands           64
 real space projection scheme for non local part
 use partial core corrections
 calculate Harris-corrections to forces 
   (improved forces if not selfconsistent)
 use gradient corrections 
 use of overlap-Matrix (Vanderbilt PP)
 Methfessel and Paxton  Order N= 1 SIGMA  =   0.20


--------------------------------------------------------------------------------------------------------


  energy-cutoff  :      355.00
  volume of cell :      569.26
      direct lattice vectors                 reciprocal lattice vectors
     8.287762333  0.000000000  0.000000000     0.120659831  0.000000000  0.000000000
     0.000000000  8.287762333  0.000000000     0.000000000  0.120659831  0.000000000
     0.000000000  0.000000000  8.287762333     0.000000000  0.000000000  0.120659831

  length of vectors
     8.287762333  8.287762333  8.287762333     0.120659831  0.120659831  0.120659831


 
 k-points in units of 2pi/SCALE and weight: Automatic mesh                          
   0.00000000  0.00000000  0.00000000       1.000
 
 k-points in reciprocal lattice and weights: Automatic mesh                          
   0.00000000  0.00000000  0.00000000       1.000
 
 position of ions in fractional coordinates (direct lattice) 
   0.12500000  0.12500000  0.12500000
   0.87500000  0.87500000  0.87500000
   0.62500000  0.12500000  0.62500000
   0.37500000  0.87500000  0.37500000
   0.12500000  0.62500000  0.62500000
   0.87500000  0.37500000  0.37500000
   0.62500000  0.62500000  0.12500000
   0.37500000  0.37500000  0.87500000
   0.50000000  0.50000000  0.50000000
   0.25000000  0.75000000  0.00000000
   0.75000000  0.25000000  0.00000000
   0.75000000  0.00000000  0.25000000
   0.25000000  0.00000000  0.75000000
   0.00000000  0.25000000  0.75000000
   0.00000000  0.75000000  0.25000000
   0.50000000  0.00000000  0.00000000
   0.25000000  0.25000000  0.50000000
   0.75000000  0.75000000  0.50000000
   0.75000000  0.50000000  0.75000000
   0.25000000  0.50000000  0.25000000
   0.00000000  0.50000000  0.00000000
   0.50000000  0.25000000  0.25000000
   0.50000000  0.75000000  0.75000000
   0.00000000  0.00000000  0.50000000
   0.26312680  0.26312680  0.26312680
   0.73687323  0.73687323  0.73687323
   0.48687320  0.98687323  0.76312677
   0.51312677  0.01312680  0.23687320
   0.98687323  0.76312677  0.48687320
   0.01312680  0.23687320  0.51312677
   0.76312677  0.48687320  0.98687323
   0.23687320  0.51312677  0.01312680
   0.01312680  0.51312677  0.23687320
   0.98687323  0.48687320  0.76312677
   0.51312677  0.23687320  0.01312680
   0.48687320  0.76312677  0.98687323
   0.23687320  0.01312680  0.51312677
   0.76312677  0.98687323  0.48687320
   0.26312680  0.76312677  0.76312677
   0.73687323  0.23687320  0.23687320
   0.48687320  0.48687320  0.26312680
   0.51312677  0.51312677  0.73687323
   0.98687323  0.26312680  0.98687323
   0.01312680  0.73687323  0.01312680
   0.01312680  0.01312680  0.73687323
   0.98687323  0.98687323  0.26312680
   0.51312677  0.73687323  0.51312677
   0.48687320  0.26312680  0.48687320
   0.76312677  0.26312680  0.76312677
   0.23687320  0.73687323  0.23687320
   0.26312680  0.48687320  0.48687320
   0.73687323  0.51312677  0.51312677
   0.73687323  0.01312680  0.01312680
   0.26312680  0.98687323  0.98687323
   0.76312677  0.76312677  0.26312680
   0.23687320  0.23687320  0.73687323
 
 position of ions in cartesian coordinates  (Angst):
   1.03597029  1.03597029  1.03597029
   7.25179204  7.25179204  7.25179204
   5.17985146  1.03597029  5.17985146
   3.10791087  7.25179204  3.10791087
   1.03597029  5.17985146  5.17985146
   7.25179204  3.10791087  3.10791087
   5.17985146  5.17985146  1.03597029
   3.10791087  3.10791087  7.25179204
   4.14388117  4.14388117  4.14388117
   2.07194058  6.21582175  0.00000000
   6.21582175  2.07194058  0.00000000
   6.21582175  0.00000000  2.07194058
   2.07194058  0.00000000  6.21582175
   0.00000000  2.07194058  6.21582175
   0.00000000  6.21582175  2.07194058
   4.14388117  0.00000000  0.00000000
   2.07194058  2.07194058  4.14388117
   6.21582175  6.21582175  4.14388117
   6.21582175  4.14388117  6.21582175
   2.07194058  4.14388117  2.07194058
   0.00000000  4.14388117  0.00000000
   4.14388117  2.07194058  2.07194058
   4.14388117  6.21582175  6.21582175
   0.00000000  0.00000000  4.14388117
   2.18073235  2.18073235  2.18073235
   6.10703023  6.10703023  6.10703023
   4.03508940  8.17897082  6.32461327
   4.25267268  0.10879176  1.96314882
   8.17897082  6.32461327  4.03508940
   0.10879176  1.96314882  4.25267268
   6.32461327  4.03508940  8.17897082
   1.96314882  4.25267268  0.10879176
   0.10879176  4.25267268  1.96314882
   8.17897082  4.03508940  6.32461327
   4.25267268  1.96314882  0.10879176
   4.03508940  6.32461327  8.17897082
   1.96314882  0.10879176  4.25267268
   6.32461327  8.17897082  4.03508940
   2.18073235  6.32461327  6.32461327
   6.10703023  1.96314882  1.96314882
   4.03508940  4.03508940  2.18073235
   4.25267268  4.25267268  6.10703023
   8.17897082  2.18073235  8.17897082
   0.10879176  6.10703023  0.10879176
   0.10879176  0.10879176  6.10703023
   8.17897082  8.17897082  2.18073235
   4.25267268  6.10703023  4.25267268
   4.03508940  2.18073235  4.03508940
   6.32461327  2.18073235  6.32461327
   1.96314882  6.10703023  1.96314882
   2.18073235  4.03508940  4.03508940
   6.10703023  4.25267268  4.25267268
   6.10703023  0.10879176  0.10879176
   2.18073235  8.17897082  8.17897082
   6.32461327  6.32461327  2.18073235
   1.96314882  1.96314882  6.10703023
 


--------------------------------------------------------------------------------------------------------


 k-point  1 :   0.0000 0.0000 0.0000  plane waves:    8709

 maximum and minimum number of plane-waves per node :      2187     2171

 maximum number of plane-waves:      8709
 maximum index in each direction: 
   IXMAX=   12   IYMAX=   12   IZMAX=   12
   IXMIN=  -12   IYMIN=  -12   IZMIN=  -12

 WARNING: aliasing errors must be expected set NGX to  50 to avoid them
 WARNING: aliasing errors must be expected set NGY to  50 to avoid them
 WARNING: aliasing errors must be expected set NGZ to  50 to avoid them
 aliasing errors are usually negligible using standard VASP settings
 and one can safely disregard these warnings

 real space projection operators:
  total allocation   :       4460.75 KBytes
  max/ min on nodes  :       1127.00       1103.38


 parallel 3D FFT for wavefunctions:
    minimum data exchange during FFTs selected (reduces bandwidth)
 parallel 3D FFT for charge:
    minimum data exchange during FFTs selected (reduces bandwidth)


 total amount of memory used by VASP on root node    40861. kBytes
========================================================================

   base      :      30000. kBytes
   nonlr-proj:       2550. kBytes
   fftplans  :       1014. kBytes
   grid      :       2594. kBytes
   one-center:        435. kBytes
   wavefun   :       4268. kBytes
 
     INWAV:  cpu time    0.00: real time    0.00
 Broyden mixing: mesh for mixing (old mesh)
   NGX = 25   NGY = 25   NGZ = 25
  (NGX  = 60   NGY  = 60   NGZ  = 60)
  gives a total of  15625 points

 initial charge density was supplied:
 charge density of overlapping atoms calculated
 number of electron     328.0000000 magnetization      64.0000000
 keeping initial charge density in first step


--------------------------------------------------------------------------------------------------------


 Maximum index for non-local projection operator          315
 Maximum index for augmentation-charges          177 (set IRDMAX)


--------------------------------------------------------------------------------------------------------


 First call to EWALD:  gamma=   0.214
 Maximum number of real-space cells 3x 3x 3
 Maximum number of reciprocal cells 3x 3x 3

 FEWALD executed in parallel
    FEWALD:  cpu time    0.00: real time    0.00


----------------------------------------- Iteration    1(   1)  ---------------------------------------


    POTLOK:  cpu time    0.02: real time    0.02
    SETDIJ:  cpu time    0.02: real time    0.02
     EDDAV:  cpu time    1.05: real time    1.08
       DOS:  cpu time    0.00: real time    0.00
    --------------------------------------------
      LOOP:  cpu time    1.10: real time    1.15

 eigenvalue-minimisations  :   952
 total energy-change (2. order) : 0.3925294E+04  (-0.1125748E+05)
 number of electron     328.0000000 magnetization      64.0000000
 augmentation part      328.0000000 magnetization      64.0000000

 Free energy of the ion-electron system (eV)
  ---------------------------------------------------
  alpha Z        PSCENC =      1188.77065865
  Ewald energy   TEWEN  =    -16764.95628046
  -Hartree energ DENC   =     -5877.54997781
  -exchange      EXHF   =         0.00000000
  -V(xc)+E(xc)   XCENC  =       803.94142469
  PAW double counting   =     15001.91370456   -15087.00539987
  entropy T*S    EENTRO =        -0.02023951
  eigenvalues    EBANDS =      2535.56876045
  atomic energy  EATOM  =     22124.63099549
  ---------------------------------------------------
  free energy    TOTEN  =      3925.29364620 eV

  energy without entropy =     3925.31388571  energy(sigma->0) =     3925.30039271


--------------------------------------------------------------------------------------------------------




----------------------------------------- Iteration    1(   2)  ---------------------------------------


     EDDAV:  cpu time    1.03: real time    1.04
       DOS:  cpu time    0.00: real time    0.00
    --------------------------------------------
      LOOP:  cpu time    1.04: real time    1.05

 eigenvalue-minimisations  :   920
 total energy-change (2. order) :-0.3831765E+04  (-0.3554937E+04)
 number of electron     328.0000000 magnetization      64.0000000
 augmentation part      328.0000000 magnetization      64.0000000

 Free energy of the ion-electron system (eV)
  ---------------------------------------------------
  alpha Z        PSCENC =      1188.77065865
  Ewald energy   TEWEN  =    -16764.95628046
  -Hartree energ DENC   =     -5877.54997781
  -exchange      EXHF   =         0.00000000
  -V(xc)+E(xc)   XCENC  =       803.94142469
  PAW double counting   =     15001.91370456   -15087.00539987
  entropy T*S    EENTRO =         0.00539676
  eigenvalues    EBANDS =     -1296.22154024
  atomic energy  EATOM  =     22124.63099549
  ---------------------------------------------------
  free energy    TOTEN  =        93.52898179 eV

  energy without entropy =       93.52358503  energy(sigma->0) =       93.52718287


--------------------------------------------------------------------------------------------------------




----------------------------------------- Iteration    1(   3)  ---------------------------------------


     EDDAV:  cpu time    1.09: real time    1.09
       DOS:  cpu time    0.00: real time    0.00
    --------------------------------------------
      LOOP:  cpu time    1.10: real time    1.10

 eigenvalue-minimisations  :   984
 total energy-change (2. order) :-0.5947650E+03  (-0.5457009E+03)
 number of electron     328.0000000 magnetization      64.0000000
 augmentation part      328.0000000 magnetization      64.0000000

 Free energy of the ion-electron system (eV)
  ---------------------------------------------------
  alpha Z        PSCENC =      1188.77065865
  Ewald energy   TEWEN  =    -16764.95628046
  -Hartree energ DENC   =     -5877.54997781
  -exchange      EXHF   =         0.00000000
  -V(xc)+E(xc)   XCENC  =       803.94142469
  PAW double counting   =     15001.91370456   -15087.00539987
  entropy T*S    EENTRO =         0.10168186
  eigenvalues    EBANDS =     -1891.08282908
  atomic energy  EATOM  =     22124.63099549
  ---------------------------------------------------
  free energy    TOTEN  =      -501.23602195 eV

  energy without entropy =     -501.33770382  energy(sigma->0) =     -501.26991591


--------------------------------------------------------------------------------------------------------




----------------------------------------- Iteration    1(   4)  ---------------------------------------


     EDDAV:  cpu time    1.37: real time    1.38
       DOS:  cpu time    0.00: real time    0.00
    --------------------------------------------
      LOOP:  cpu time    1.38: real time    1.38

 eigenvalue-minimisations  :  1312
 total energy-change (2. order) :-0.4004130E+02  (-0.3900845E+02)
 number of electron     328.0000000 magnetization      64.0000000
 augmentation part      328.0000000 magnetization      64.0000000

 Free energy of the ion-electron system (eV)
  ---------------------------------------------------
  alpha Z        PSCENC =      1188.77065865
  Ewald energy   TEWEN  =    -16764.95628046
  -Hartree energ DENC   =     -5877.54997781
  -exchange      EXHF   =         0.00000000
  -V(xc)+E(xc)   XCENC  =       803.94142469
  PAW double counting   =     15001.91370456   -15087.00539987
  entropy T*S    EENTRO =         0.19013531
  eigenvalues    EBANDS =     -1931.21258656
  atomic energy  EATOM  =     22124.63099549
  ---------------------------------------------------
  free energy    TOTEN  =      -541.27732599 eV

  energy without entropy =     -541.46746130  energy(sigma->0) =     -541.34070443


--------------------------------------------------------------------------------------------------------




----------------------------------------- Iteration    1(   5)  ---------------------------------------


     EDDAV:  cpu time    1.35: real time    1.35
       DOS:  cpu time    0.00: real time    0.00
    CHARGE:  cpu time    0.07: real time    0.07
    MIXING:  cpu time    0.00: real time    0.00
    --------------------------------------------
      LOOP:  cpu time    1.43: real time    1.43

 eigenvalue-minimisations  :  1288
 total energy-change (2. order) :-0.9024114E+00  (-0.8966813E+00)
 number of electron     328.0000191 magnetization      56.9817477
 augmentation part       97.8576303 magnetization      35.7948399

 Broyden mixing:
  rms(total) = 0.70474E+01    rms(broyden)= 0.70287E+01
  rms(prec ) = 0.10731E+02
  weight for this iteration     100.00

 Free energy of the ion-electron system (eV)
  ---------------------------------------------------
  alpha Z        PSCENC =      1188.77065865
  Ewald energy   TEWEN  =    -16764.95628046
  -Hartree energ DENC   =     -5877.54997781
  -exchange      EXHF   =         0.00000000
  -V(xc)+E(xc)   XCENC  =       803.94142469
  PAW double counting   =     15001.91370456   -15087.00539987
  entropy T*S    EENTRO =         0.19342386
  eigenvalues    EBANDS =     -1932.11828648
  atomic energy  EATOM  =     22124.63099549
  ---------------------------------------------------
  free energy    TOTEN  =      -542.17973736 eV

  energy without entropy =     -542.37316122  energy(sigma->0) =     -542.24421198


--------------------------------------------------------------------------------------------------------




----------------------------------------- Iteration    1(   6)  ---------------------------------------


    POTLOK:  cpu time    0.02: real time    0.02
    SETDIJ:  cpu time    0.02: real time    0.02
    EDDIAG:  cpu time    0.18: real time    0.18
  RMM-DIIS:  cpu time    0.36: real time    0.37
    ORTHCH:  cpu time    0.05: real time    0.05
       DOS:  cpu time    0.00: real time    0.00
    CHARGE:  cpu time    0.07: real time    0.07
    MIXING:  cpu time    0.00: real time    0.00
    --------------------------------------------
      LOOP:  cpu time    0.71: real time    0.72

 eigenvalue-minimisations  :   924
 total energy-change (2. order) : 0.4752823E+02  (-0.8691460E+02)
 number of electron     328.0003261 magnetization      50.9456033
 augmentation part      115.1093162 magnetization      40.6778794

 Broyden mixing:
  rms(total) = 0.93201E+01    rms(broyden)= 0.93172E+01
  rms(prec ) = 0.13659E+02
  weight for this iteration     100.00

 eigenvalues of (default mixing * dielectric matrix)
  average eigenvalue GAMMA=   0.3997
  0.3997

 Free energy of the ion-electron system (eV)
  ---------------------------------------------------
  alpha Z        PSCENC =      1188.77065865
  Ewald energy   TEWEN  =    -16764.95628046
  -Hartree energ DENC   =     -6053.32006130
  -exchange      EXHF   =         0.00000000
  -V(xc)+E(xc)   XCENC  =       839.61037389
  PAW double counting   =     16223.77239576   -16301.48480676
  entropy T*S    EENTRO =        -0.00010416
  eigenvalues    EBANDS =     -1751.67468140
  atomic energy  EATOM  =     22124.63099549
  ---------------------------------------------------
  free energy    TOTEN  =      -494.65151027 eV

  energy without entropy =     -494.65140612  energy(sigma->0) =     -494.65147556


--------------------------------------------------------------------------------------------------------




----------------------------------------- Iteration    1(   7)  ---------------------------------------


    POTLOK:  cpu time    0.02: real time    0.02
    SETDIJ:  cpu time    0.02: real time    0.02
    EDDIAG:  cpu time    0.18: real time    0.18
  RMM-DIIS:  cpu time    0.37: real time    0.37
    ORTHCH:  cpu time    0.05: real time    0.05
       DOS:  cpu time    0.00: real time    0.00
    CHARGE:  cpu time    0.07: real time    0.07
    MIXING:  cpu time    0.00: real time    0.00
    --------------------------------------------
      LOOP:  cpu time    0.72: real time    0.72

 eigenvalue-minimisations  :   975
 total energy-change (2. order) : 0.6229337E+02  (-0.1720921E+02)
 number of electron     328.0000438 magnetization      48.0116410
 augmentation part       97.9043160 magnetization      32.7101413

 Broyden mixing:
  rms(total) = 0.28844E+01    rms(broyden)= 0.28729E+01
  rms(prec ) = 0.41282E+01
  weight for this iteration     100.00

 eigenvalues of (default mixing * dielectric matrix)
  average eigenvalue GAMMA=   0.5293
  0.7335  0.3250

 Free energy of the ion-electron system (eV)
  ---------------------------------------------------
  alpha Z        PSCENC =      1188.77065865
  Ewald energy   TEWEN  =    -16764.95628046
  -Hartree energ DENC   =     -6045.93406271
  -exchange      EXHF   =         0.00000000
  -V(xc)+E(xc)   XCENC  =       813.53898821
  PAW double counting   =     16392.14284761   -16502.48365499
  entropy T*S    EENTRO =        -0.23098865
  eigenvalues    EBANDS =     -1637.83664698
  atomic energy  EATOM  =     22124.63099549
  ---------------------------------------------------
  free energy    TOTEN  =      -432.35814381 eV

  energy without entropy =     -432.12715516  energy(sigma->0) =     -432.28114759


--------------------------------------------------------------------------------------------------------




----------------------------------------- Iteration    1(   8)  ---------------------------------------


    POTLOK:  cpu time    0.02: real time    0.02
    SETDIJ:  cpu time    0.02: real time    0.02
    EDDIAG:  cpu time    0.18: real time    0.18
  RMM-DIIS:  cpu time    0.36: real time    0.36
    ORTHCH:  cpu time    0.05: real time    0.05
       DOS:  cpu time    0.00: real time    0.00
    CHARGE:  cpu time    0.07: real time    0.07
    MIXING:  cpu time    0.00: real time    0.00
    --------------------------------------------
      LOOP:  cpu time    0.71: real time    0.71

 eigenvalue-minimisations  :   962
 total energy-change (2. order) : 0.7959804E+01  (-0.3819983E+00)
 number of electron     328.0000836 magnetization      46.6466106
 augmentation part       99.0618300 magnetization      31.4386324

 Broyden mixing:
  rms(total) = 0.17598E+01    rms(broyden)= 0.17596E+01
  rms(prec ) = 0.25538E+01
  weight for this iteration     100.00

 eigenvalues of (default mixing * dielectric matrix)
  average eigenvalue GAMMA=   0.8176
  0.3657  1.0436  1.0436

 Free energy of the ion-electron system (eV)
  ---------------------------------------------------
  alpha Z        PSCENC =      1188.77065865
  Ewald energy   TEWEN  =    -16764.95628046
  -Hartree energ DENC   =     -6029.29185461
  -exchange      EXHF   =         0.00000000
  -V(xc)+E(xc)   XCENC  =       818.03658570
  PAW double counting   =     16673.74235981   -16786.73598778
  entropy T*S    EENTRO =        -0.22445436
  eigenvalues    EBANDS =     -1648.37036266
  atomic energy  EATOM  =     22124.63099549
  ---------------------------------------------------
  free energy    TOTEN  =      -424.39834020 eV

  energy without entropy =     -424.17388584  energy(sigma->0) =     -424.32352208


--------------------------------------------------------------------------------------------------------




----------------------------------------- Iteration    1(   9)  ---------------------------------------


    POTLOK:  cpu time    0.02: real time    0.02
    SETDIJ:  cpu time    0.02: real time    0.02
    EDDIAG:  cpu time    0.18: real time    0.18
  RMM-DIIS:  cpu time    0.38: real time    0.38
    ORTHCH:  cpu time    0.05: real time    0.05
       DOS:  cpu time    0.00: real time    0.00
    CHARGE:  cpu time    0.07: real time    0.07
    MIXING:  cpu time    0.00: real time    0.00
    --------------------------------------------
      LOOP:  cpu time    0.72: real time    0.73

 eigenvalue-minimisations  :   963
 total energy-change (2. order) : 0.3394785E+01  (-0.9598454E+00)
 number of electron     328.0001443 magnetization      48.4978499
 augmentation part      100.9092842 magnetization      33.5478312

 Broyden mixing:
  rms(total) = 0.66890E+00    rms(broyden)= 0.66368E+00
  rms(prec ) = 0.70690E+00
  weight for this iteration     100.00

 eigenvalues of (default mixing * dielectric matrix)
  average eigenvalue GAMMA=   0.9424
  1.4129  1.4129  0.3631  0.5807

 Free energy of the ion-electron system (eV)
  ---------------------------------------------------
  alpha Z        PSCENC =      1188.77065865
  Ewald energy   TEWEN  =    -16764.95628046
  -Hartree energ DENC   =     -6006.55113290
  -exchange      EXHF   =         0.00000000
  -V(xc)+E(xc)   XCENC  =       824.82198153
  PAW double counting   =     17148.36666160   -17264.27005266
  entropy T*S    EENTRO =        -0.11168457
  eigenvalues    EBANDS =     -1671.70470156
  atomic energy  EATOM  =     22124.63099549
  ---------------------------------------------------
  free energy    TOTEN  =      -421.00355486 eV

  energy without entropy =     -420.89187029  energy(sigma->0) =     -420.96632667


--------------------------------------------------------------------------------------------------------




----------------------------------------- Iteration    1(  10)  ---------------------------------------


    POTLOK:  cpu time    0.02: real time    0.02
    SETDIJ:  cpu time    0.02: real time    0.02
    EDDIAG:  cpu time    0.17: real time    0.18
  RMM-DIIS:  cpu time    0.38: real time    0.38
    ORTHCH:  cpu time    0.05: real time    0.05
       DOS:  cpu time    0.00: real time    0.00
    CHARGE:  cpu time    0.07: real time    0.07
    MIXING:  cpu time    0.00: real time    0.00
    --------------------------------------------
      LOOP:  cpu time    0.72: real time    0.72

 eigenvalue-minimisations  :   962
 total energy-change (2. order) :-0.1816539E+00  (-0.8297860E-01)
 number of electron     328.0001480 magnetization      51.2579725
 augmentation part      100.9472614 magnetization      35.9439903

 Broyden mixing:
  rms(total) = 0.35076E+00    rms(broyden)= 0.34980E+00
  rms(prec ) = 0.42915E+00
  weight for this iteration     100.00

 eigenvalues of (default mixing * dielectric matrix)
  average eigenvalue GAMMA=   1.0657
  1.7552  1.7552  0.3648  0.7950  0.6583

 Free energy of the ion-electron system (eV)
  ---------------------------------------------------
  alpha Z        PSCENC =      1188.77065865
  Ewald energy   TEWEN  =    -16764.95628046
  -Hartree energ DENC   =     -6002.28332970
  -exchange      EXHF   =         0.00000000
  -V(xc)+E(xc)   XCENC  =       828.56906660
  PAW double counting   =     17243.33134917   -17362.63653894
  entropy T*S    EENTRO =         0.01214641
  eigenvalues    EBANDS =     -1676.62327599
  atomic energy  EATOM  =     22124.63099549
  ---------------------------------------------------
  free energy    TOTEN  =      -421.18520875 eV

  energy without entropy =     -421.19735517  energy(sigma->0) =     -421.18925756


--------------------------------------------------------------------------------------------------------




----------------------------------------- Iteration    1(  11)  ---------------------------------------


    POTLOK:  cpu time    0.02: real time    0.02
    SETDIJ:  cpu time    0.02: real time    0.02
    EDDIAG:  cpu time    0.17: real time    0.18
  RMM-DIIS:  cpu time    0.37: real time    0.37
    ORTHCH:  cpu time    0.05: real time    0.05
       DOS:  cpu time    0.00: real time    0.00
    CHARGE:  cpu time    0.07: real time    0.07
    MIXING:  cpu time    0.00: real time    0.00
    --------------------------------------------
      LOOP:  cpu time    0.71: real time    0.71

 eigenvalue-minimisations  :   971
 total energy-change (2. order) :-0.1218825E+00  (-0.2136280E-01)
 number of electron     328.0001589 magnetization      52.6154143
 augmentation part      101.0528787 magnetization      36.8169308

 Broyden mixing:
  rms(total) = 0.18310E+00    rms(broyden)= 0.18117E+00
  rms(prec ) = 0.26219E+00
  weight for this iteration     100.00

 eigenvalues of (default mixing * dielectric matrix)
  average eigenvalue GAMMA=   1.1964
  2.1845  1.8682  1.4042  0.3644  0.7269  0.6300

 Free energy of the ion-electron system (eV)
  ---------------------------------------------------
  alpha Z        PSCENC =      1188.77065865
  Ewald energy   TEWEN  =    -16764.95628046
  -Hartree energ DENC   =     -6004.26480518
  -exchange      EXHF   =         0.00000000
  -V(xc)+E(xc)   XCENC  =       833.34250695
  PAW double counting   =     17408.06701007   -17532.90196921
  entropy T*S    EENTRO =         0.15539442
  eigenvalues    EBANDS =     -1674.15060202
  atomic energy  EATOM  =     22124.63099549
  ---------------------------------------------------
  free energy    TOTEN  =      -421.30709128 eV

  energy without entropy =     -421.46248571  energy(sigma->0) =     -421.35888942


--------------------------------------------------------------------------------------------------------




----------------------------------------- Iteration    1(  12)  ---------------------------------------


    POTLOK:  cpu time    0.02: real time    0.02
    SETDIJ:  cpu time    0.02: real time    0.02
    EDDIAG:  cpu time    0.17: real time    0.17
  RMM-DIIS:  cpu time    0.37: real time    0.37
    ORTHCH:  cpu time    0.05: real time    0.05
       DOS:  cpu time    0.00: real time    0.00
    CHARGE:  cpu time    0.07: real time    0.07
    MIXING:  cpu time    0.00: real time    0.00
    --------------------------------------------
      LOOP:  cpu time    0.71: real time    0.71

 eigenvalue-minimisations  :   965
 total energy-change (2. order) : 0.2500952E-01  (-0.1221230E-01)
 number of electron     328.0001629 magnetization      52.3626508
 augmentation part      101.1452395 magnetization      36.5600773

 Broyden mixing:
  rms(total) = 0.77103E-01    rms(broyden)= 0.76231E-01
  rms(prec ) = 0.80731E-01
  weight for this iteration     100.00

 eigenvalues of (default mixing * dielectric matrix)
  average eigenvalue GAMMA=   1.1593
  2.5441  1.5730  1.5730  0.3644  0.7536  0.7536  0.5535

 Free energy of the ion-electron system (eV)
  ---------------------------------------------------
  alpha Z        PSCENC =      1188.77065865
  Ewald energy   TEWEN  =    -16764.95628046
  -Hartree energ DENC   =     -6009.19868776
  -exchange      EXHF   =         0.00000000
  -V(xc)+E(xc)   XCENC  =       835.42915055
  PAW double counting   =     17476.27564874   -17604.17829724
  entropy T*S    EENTRO =         0.15656808
  eigenvalues    EBANDS =     -1668.21183782
  atomic energy  EATOM  =     22124.63099549
  ---------------------------------------------------
  free energy    TOTEN  =      -421.28208177 eV

  energy without entropy =     -421.43864984  energy(sigma->0) =     -421.33427112


--------------------------------------------------------------------------------------------------------




----------------------------------------- Iteration    1(  13)  ---------------------------------------


    POTLOK:  cpu time    0.02: real time    0.02
    SETDIJ:  cpu time    0.02: real time    0.02
    EDDIAG:  cpu time    0.17: real time    0.17
  RMM-DIIS:  cpu time    0.35: real time    0.35
    ORTHCH:  cpu time    0.05: real time    0.05
       DOS:  cpu time    0.00: real time    0.00
    CHARGE:  cpu time    0.07: real time    0.07
    MIXING:  cpu time    0.00: real time    0.00
    --------------------------------------------
      LOOP:  cpu time    0.69: real time    0.69

 eigenvalue-minimisations  :   918
 total energy-change (2. order) :-0.2547842E-02  (-0.1448571E-02)
 number of electron     328.0001632 magnetization      52.2656887
 augmentation part      101.1783776 magnetization      36.4929015

 Broyden mixing:
  rms(total) = 0.27433E-01    rms(broyden)= 0.27354E-01
  rms(prec ) = 0.30915E-01
  weight for this iteration     100.00

 eigenvalues of (default mixing * dielectric matrix)
  average eigenvalue GAMMA=   1.1856
  2.7268  1.5907  1.5907  1.0956  0.3644  0.7823  0.7500  0.5844

 Free energy of the ion-electron system (eV)
  ---------------------------------------------------
  alpha Z        PSCENC =      1188.77065865
  Ewald energy   TEWEN  =    -16764.95628046
  -Hartree energ DENC   =     -6007.81272236
  -exchange      EXHF   =         0.00000000
  -V(xc)+E(xc)   XCENC  =       834.91892042
  PAW double counting   =     17472.83216301   -17600.34946996
  entropy T*S    EENTRO =         0.15237694
  eigenvalues    EBANDS =     -1669.47127135
  atomic energy  EATOM  =     22124.63099549
  ---------------------------------------------------
  free energy    TOTEN  =      -421.28462961 eV

  energy without entropy =     -421.43700654  energy(sigma->0) =     -421.33542192


--------------------------------------------------------------------------------------------------------




----------------------------------------- Iteration    1(  14)  ---------------------------------------


    POTLOK:  cpu time    0.02: real time    0.02
    SETDIJ:  cpu time    0.02: real time    0.02
    EDDIAG:  cpu time    0.17: real time    0.17
  RMM-DIIS:  cpu time    0.36: real time    0.36
    ORTHCH:  cpu time    0.05: real time    0.05
       DOS:  cpu time    0.00: real time    0.00
    CHARGE:  cpu time    0.07: real time    0.07
    MIXING:  cpu time    0.00: real time    0.00
    --------------------------------------------
      LOOP:  cpu time    0.70: real time    0.70

 eigenvalue-minimisations  :   938
 total energy-change (2. order) :-0.1761242E-03  (-0.2250137E-03)
 number of electron     328.0001630 magnetization      52.2508888
 augmentation part      101.1756134 magnetization      36.4684121

 Broyden mixing:
  rms(total) = 0.87428E-02    rms(broyden)= 0.87409E-02
  rms(prec ) = 0.99352E-02
  weight for this iteration     100.00

 eigenvalues of (default mixing * dielectric matrix)
  average eigenvalue GAMMA=   1.1814
  2.6117  1.7969  1.4491  1.4491  0.3644  0.9351  0.5898  0.7477  0.6885

 Free energy of the ion-electron system (eV)
  ---------------------------------------------------
  alpha Z        PSCENC =      1188.77065865
  Ewald energy   TEWEN  =    -16764.95628046
  -Hartree energ DENC   =     -6006.68327108
  -exchange      EXHF   =         0.00000000
  -V(xc)+E(xc)   XCENC  =       834.69693609
  PAW double counting   =     17469.83179718   -17597.30600731
  entropy T*S    EENTRO =         0.15350611
  eigenvalues    EBANDS =     -1670.42314040
  atomic energy  EATOM  =     22124.63099549
  ---------------------------------------------------
  free energy    TOTEN  =      -421.28480573 eV

  energy without entropy =     -421.43831184  energy(sigma->0) =     -421.33597443


--------------------------------------------------------------------------------------------------------




----------------------------------------- Iteration    1(  15)  ---------------------------------------


    POTLOK:  cpu time    0.02: real time    0.02
    SETDIJ:  cpu time    0.02: real time    0.02
    EDDIAG:  cpu time    0.17: real time    0.17
  RMM-DIIS:  cpu time    0.24: real time    0.24
    ORTHCH:  cpu time    0.05: real time    0.05
       DOS:  cpu time    0.00: real time    0.00
    CHARGE:  cpu time    0.07: real time    0.07
    MIXING:  cpu time    0.00: real time    0.00
    --------------------------------------------
      LOOP:  cpu time    0.57: real time    0.58

 eigenvalue-minimisations  :   592
 total energy-change (2. order) :-0.1338879E-03  (-0.2334939E-04)
 number of electron     328.0001629 magnetization      52.2366624
 augmentation part      101.1728454 magnetization      36.4532839

 Broyden mixing:
  rms(total) = 0.39003E-02    rms(broyden)= 0.38999E-02
  rms(prec ) = 0.49318E-02
  weight for this iteration     100.00

 eigenvalues of (default mixing * dielectric matrix)
  average eigenvalue GAMMA=   1.2216
  2.6669  2.1115  1.5057  1.5057  1.2518  0.3644  0.7890  0.7890  0.5899  0.6421

 Free energy of the ion-electron system (eV)
  ---------------------------------------------------
  alpha Z        PSCENC =      1188.77065865
  Ewald energy   TEWEN  =    -16764.95628046
  -Hartree energ DENC   =     -6006.79016401
  -exchange      EXHF   =         0.00000000
  -V(xc)+E(xc)   XCENC  =       834.72337479
  PAW double counting   =     17469.47635944   -17597.03965039
  entropy T*S    EENTRO =         0.15311304
  eigenvalues    EBANDS =     -1670.25334619
  atomic energy  EATOM  =     22124.63099549
  ---------------------------------------------------
  free energy    TOTEN  =      -421.28493962 eV

  energy without entropy =     -421.43805266  energy(sigma->0) =     -421.33597730


--------------------------------------------------------------------------------------------------------




----------------------------------------- Iteration    1(  16)  ---------------------------------------


    POTLOK:  cpu time    0.02: real time    0.02
    SETDIJ:  cpu time    0.02: real time    0.02
    EDDIAG:  cpu time    0.17: real time    0.18
  RMM-DIIS:  cpu time    0.21: real time    0.21
    ORTHCH:  cpu time    0.05: real time    0.05
       DOS:  cpu time    0.00: real time    0.00
    --------------------------------------------
      LOOP:  cpu time    0.48: real time    0.48

 eigenvalue-minimisations  :   530
 total energy-change (2. order) :-0.3300288E-04  (-0.1135842E-04)
 number of electron     328.0001629 magnetization      52.2366624
 augmentation part      101.1728454 magnetization      36.4532839

 Free energy of the ion-electron system (eV)
  ---------------------------------------------------
  alpha Z        PSCENC =      1188.77065865
  Ewald energy   TEWEN  =    -16764.95628046
  -Hartree energ DENC   =     -6006.91256206
  -exchange      EXHF   =         0.00000000
  -V(xc)+E(xc)   XCENC  =       834.74022625
  PAW double counting   =     17469.31128645   -17596.89586742
  entropy T*S    EENTRO =         0.15303374
  eigenvalues    EBANDS =     -1670.12646328
  atomic energy  EATOM  =     22124.63099549
  ---------------------------------------------------
  free energy    TOTEN  =      -421.28497262 eV

  energy without entropy =     -421.43800636  energy(sigma->0) =     -421.33598387


--------------------------------------------------------------------------------------------------------




 average (electrostatic) potential at core
  the test charge radii are     0.8577  1.0210  0.8742
  (the norm of the test charge is              1.0000)
       1 -14.8504       2 -14.8504       3 -14.8504       4 -14.8504       5 -14.8504
       6 -14.8504       7 -14.8504       8 -14.8504       9 -47.2568      10 -47.2568
      11 -47.2568      12 -47.2568      13 -47.2568      14 -47.2568      15 -47.2568
      16 -47.2568      17 -47.2568      18 -47.2568      19 -47.2568      20 -47.2568
      21 -47.2568      22 -47.2568      23 -47.2568      24 -47.2568      25 -81.9522
      26 -81.9522      27 -81.9522      28 -81.9522      29 -81.9522      30 -81.9522
      31 -81.9522      32 -81.9522      33 -81.9522      34 -81.9522      35 -81.9522
      36 -81.9522      37 -81.9522      38 -81.9522      39 -81.9522      40 -81.9522
      41 -81.9522      42 -81.9522      43 -81.9522      44 -81.9522      45 -81.9522
      46 -81.9522      47 -81.9522      48 -81.9522      49 -81.9522      50 -81.9522
      51 -81.9522      52 -81.9522      53 -81.9522      54 -81.9522      55 -81.9522
      56 -81.9522
 
 
 
 E-fermi :   4.1270     XC(G=0): -10.7790     alpha+bet :-11.1763


 spin component 1

 k-point     1 :       0.0000    0.0000    0.0000
  band No.  band energies     occupation 
      1     -40.3627      1.00000
      2     -40.3618      1.00000
      3     -40.3618      1.00000
      4     -40.3618      1.00000
      5     -40.3618      1.00000
      6     -40.3618      1.00000
      7     -40.3618      1.00000
      8     -40.3608      1.00000
      9     -16.1729      1.00000
     10     -15.5581      1.00000
     11     -15.5581      1.00000
     12     -15.5581      1.00000
     13     -15.5581      1.00000
     14     -15.5581      1.00000
     15     -15.5581      1.00000
     16     -14.8828      1.00000
     17     -14.7863      1.00000
     18     -14.7863      1.00000
     19     -14.7863      1.00000
     20     -14.7418      1.00000
     21     -14.7418      1.00000
     22     -14.7418      1.00000
     23     -14.7418      1.00000
     24     -14.7418      1.00000
     25     -14.7418      1.00000
     26     -14.6855      1.00000
     27     -14.6855      1.00000
     28     -14.6855      1.00000
     29     -14.6855      1.00000
     30     -14.6855      1.00000
     31     -14.6855      1.00000
     32     -14.6079      1.00000
     33     -14.6079      1.00000
     34     -14.6079      1.00000
     35     -14.6079      1.00000
     36     -14.6079      1.00000
     37     -14.6079      1.00000
     38     -14.5455      1.00000
     39     -14.5455      1.00000
     40     -14.5455      1.00000
     41      -3.9100      1.00000
     42      -3.4463      1.00000
     43      -3.4463      1.00000
     44      -3.4463      1.00000
     45      -3.0199      1.00000
     46      -3.0199      1.00000
     47      -3.0199      1.00000
     48      -3.0199      1.00000
     49      -3.0199      1.00000
     50      -3.0199      1.00000
     51      -2.5353      1.00000
     52      -2.5353      1.00000
     53      -2.5353      1.00000
     54      -2.5353      1.00000
     55      -2.5353      1.00000
     56      -2.5353      1.00000
     57      -2.5192      1.00000
     58      -2.5192      1.00000
     59      -2.5192      1.00000
     60      -2.5192      1.00000
     61      -2.5192      1.00000
     62      -2.5192      1.00000
     63      -2.4768      1.00000
     64      -2.4768      1.00000
     65      -2.1238      1.00000
     66      -2.1238      1.00000
     67      -2.1238      1.00000
     68      -2.1238      1.00000
     69      -2.1238      1.00000
     70      -2.1238      1.00000
     71      -1.9430      1.00000
     72      -1.9430      1.00000
     73      -1.7806      1.00000
     74      -1.7159      1.00000
     75      -1.7159      1.00000
     76      -1.7159      1.00000
     77      -1.7159      1.00000
     78      -1.7159      1.00000
     79      -1.7159      1.00000
     80      -1.7062      1.00000
     81      -1.7062      1.00000
     82      -1.7062      1.00000
     83      -1.5868      1.00000
     84      -1.5868      1.00000
     85      -1.5868      1.00000
     86      -1.5868      1.00000
     87      -1.5868      1.00000
     88      -1.5868      1.00000
     89      -1.3580      1.00000
     90      -1.3580      1.00000
     91      -1.3580      1.00000
     92      -1.3580      1.00000
     93      -1.3580      1.00000
     94      -1.3580      1.00000
     95      -1.2346      1.00000
     96      -1.2346      1.00000
     97      -1.2346      1.00000
     98      -1.2346      1.00000
     99      -1.2346      1.00000
    100      -1.2346      1.00000
    101      -0.9285      1.00000
    102      -0.9285      1.00000
    103      -0.9285      1.00000
    104      -0.8415      1.00000
    105      -0.8415      1.00000
    106      -0.8415      1.00000
    107      -0.8415      1.00000
    108      -0.8415      1.00000
    109      -0.8415      1.00000
    110      -0.0925      1.00000
    111      -0.0925      1.00000
    112      -0.0925      1.00000
    113      -0.0925      1.00000
    114      -0.0925      1.00000
    115      -0.0925      1.00000
    116       0.0897      1.00000
    117       0.0897      1.00000
    118       0.0897      1.00000
    119       0.2599      1.00000
    120       0.2599      1.00000
    121       0.2599      1.00000
    122       0.2599      1.00000
    123       0.2599      1.00000
    124       0.2599      1.00000
    125       0.4475      1.00000
    126       0.4475      1.00000
    127       0.5021      1.00000
    128       0.5021      1.00000
    129       0.5021      1.00000
    130       0.9966      1.00000
    131       0.9966      1.00000
    132       0.9966      1.00000
    133       0.9966      1.00000
    134       0.9966      1.00000
    135       0.9966      1.00000
    136       1.2078      1.00000
    137       1.2078      1.00000
    138       1.2078      1.00000
    139       1.3950      1.00000
    140       1.3950      1.00000
    141       1.3950      1.00000
    142       1.3950      1.00000
    143       1.3950      1.00000
    144       1.3950      1.00000
    145       1.4064      1.00000
    146       1.4064      1.00000
    147       1.4064      1.00000
    148       1.4646      1.00000
    149       1.4646      1.00000
    150       1.4646      1.00000
    151       1.5578      1.00000
    152       1.5578      1.00000
    153       1.5578      1.00000
    154       1.5578      1.00000
    155       1.5578      1.00000
    156       1.5578      1.00000
    157       1.5838      1.00000
    158       1.5839      1.00000
    159       1.5839      1.00000
    160       1.5839      1.00000
    161       1.5839      1.00000
    162       1.5839      1.00000
    163       1.9126      1.00000
    164       1.9126      1.00000
    165       1.9126      1.00000
    166       2.0653      1.00000
    167       2.0653      1.00000
    168       2.0653      1.00000
    169       2.0653      1.00000
    170       2.0653      1.00000
    171       2.0653      1.00000
    172       2.1374      1.00000
    173       2.2960      1.00000
    174       2.2960      1.00000
    175       2.2960      1.00000
    176       2.2960      1.00000
    177       2.2960      1.00000
    178       2.2960      1.00000
    179       2.4510      1.00000
    180       2.4510      1.00000
    181       2.4510      1.00000
    182       2.4510      1.00000
    183       2.4510      1.00000
    184       2.4510      1.00000
    185       3.9372      1.01900
    186       3.9372      1.01900
    187       3.9372      1.01900
    188       3.9372      1.01900
    189       3.9372      1.01900
    190       3.9372      1.01900
    191       4.2942      0.00137
    192       4.2942      0.00137
    193       4.2942      0.00136
    194       4.2942      0.00136
    195       4.2942      0.00136
    196       4.2942      0.00136
    197       4.6446     -0.00078
    198       4.6446     -0.00078
    199       4.6446     -0.00078
    200       4.6644     -0.00048
    201       4.6644     -0.00048
    202       4.6644     -0.00048
    203       4.6644     -0.00048
    204       4.6644     -0.00048
    205       4.6644     -0.00048
    206       5.0193     -0.00000
    207       5.0193     -0.00000
    208       5.0193     -0.00000
    209       5.0193     -0.00000
    210       5.0193     -0.00000
    211       5.0193     -0.00000
    212       5.1347     -0.00000
    213       5.1347     -0.00000
    214       5.1347     -0.00000
    215       5.1924     -0.00000
    216       5.1924     -0.00000
    217       8.5272     -0.00000
    218      11.3643      0.00000
    219      11.3651      0.00000
    220      11.3668      0.00000
    221      11.3700      0.00000
    222      11.3720      0.00000
    223      11.3783      0.00000
    224      12.0861      0.00000
    225      12.1082      0.00000
    226      12.1635      0.00000
    227      12.2632      0.00000
    228      12.3080      0.00000

 spin component 2

 k-point     1 :       0.0000    0.0000    0.0000
  band No.  band energies     occupation 
      1     -40.3433      1.00000
      2     -40.3424      1.00000
      3     -40.3424      1.00000
      4     -40.3424      1.00000
      5     -40.3424      1.00000
      6     -40.3424      1.00000
      7     -40.3424      1.00000
      8     -40.3414      1.00000
      9     -16.0584      1.00000
     10     -15.4604      1.00000
     11     -15.4604      1.00000
     12     -15.4604      1.00000
     13     -15.4603      1.00000
     14     -15.4603      1.00000
     15     -15.4603      1.00000
     16     -14.8146      1.00000
     17     -14.6929      1.00000
     18     -14.6929      1.00000
     19     -14.6929      1.00000
     20     -14.6704      1.00000
     21     -14.6704      1.00000
     22     -14.6704      1.00000
     23     -14.6704      1.00000
     24     -14.6704      1.00000
     25     -14.6704      1.00000
     26     -14.6138      1.00000
     27     -14.6138      1.00000
     28     -14.6138      1.00000
     29     -14.6138      1.00000
     30     -14.6138      1.00000
     31     -14.6138      1.00000
[...]


 soft charge-density along one line, spin component           1
         0         1         2         3         4         5         6         7         8         9
 total charge-density along one line
 
 soft charge-density along one line, spin component           2
         0         1         2         3         4         5         6         7         8         9
 total charge-density along one line
 
 pseudopotential strength for first ion, spin component:           1
-48.793   9.275  -0.000  -0.000  -0.000  -0.000  -0.000  -0.000
  9.275  -0.548   0.000   0.000   0.000   0.000   0.000   0.000
 -0.000   0.000  -0.502   0.000   0.000   0.311   0.000   0.000
 -0.000   0.000   0.000  -0.502   0.000   0.000   0.311   0.000
 -0.000   0.000   0.000   0.000  -0.502   0.000   0.000   0.311
 -0.000   0.000   0.311   0.000   0.000   1.972   0.000   0.000
 -0.000   0.000   0.000   0.311   0.000   0.000   1.972   0.000
 -0.000   0.000   0.000   0.000   0.311   0.000   0.000   1.972
 pseudopotential strength for first ion, spin component:           2
-48.781   9.272  -0.000  -0.000  -0.000  -0.000  -0.000  -0.000
  9.272  -0.544   0.000   0.000   0.000   0.000   0.000   0.000
 -0.000   0.000  -0.486   0.000   0.000   0.301   0.000   0.000
 -0.000   0.000   0.000  -0.486   0.000   0.000   0.301   0.000
 -0.000   0.000   0.000   0.000  -0.486   0.000   0.000   0.301
 -0.000   0.000   0.301   0.000   0.000   1.976   0.000   0.000
 -0.000   0.000   0.000   0.301   0.000   0.000   1.976   0.000
 -0.000   0.000   0.000   0.000   0.301   0.000   0.000   1.976
 total augmentation occupancy for first ion, spin component:           1
  2.017   0.118   0.000   0.000   0.000   0.000  -0.000   0.000
  0.118   0.840   0.000   0.000   0.000   0.000   0.000  -0.000
 -0.000   0.000   0.092   0.000   0.000  -0.017   0.000   0.000
  0.000   0.000   0.000   0.092   0.000   0.000  -0.017   0.000
 -0.000   0.000   0.000   0.000   0.092   0.000   0.000  -0.017
  0.000   0.000  -0.017   0.000   0.000   0.004   0.000   0.000
  0.000  -0.000   0.000  -0.017   0.000   0.000   0.004   0.000
 -0.000   0.000   0.000   0.000  -0.017   0.000   0.000   0.004
 total augmentation occupancy for first ion, spin component:           2
  0.001   0.010   0.000   0.000   0.000   0.000   0.000  -0.000
  0.010   0.075  -0.000   0.000   0.000   0.000   0.000   0.000
 -0.000  -0.000   0.004   0.000   0.000  -0.001   0.000   0.000
 -0.000   0.000   0.000   0.004   0.000   0.000  -0.001   0.000
 -0.000   0.000   0.000   0.000   0.004   0.000   0.000  -0.001
  0.000   0.000  -0.001   0.000   0.000   0.000   0.000   0.000
  0.000   0.000   0.000  -0.001   0.000   0.000   0.000   0.000
 -0.000   0.000   0.000   0.000  -0.001   0.000   0.000   0.000


------------------------ aborting loop because EDIFF is reached ----------------------------------------


    CHARGE:  cpu time    0.07: real time    0.07
    FORLOC:  cpu time    0.00: real time    0.00
    FORNL :  cpu time    0.15: real time    0.16
    STRESS:  cpu time    0.46: real time    0.46
    FORCOR:  cpu time    0.02: real time    0.02
    FORHAR:  cpu time    0.01: real time    0.01
    MIXING:  cpu time    0.00: real time    0.00
    OFIELD:  cpu time    0.00: real time    0.00

  FORCE on cell =-STRESS in cart. coord.  units (eV):
  Direction    XX          YY          ZZ          XY          YZ          ZX
  --------------------------------------------------------------------------------------
  Alpha Z  1191.38849  1191.38849  1191.38849
  Ewald   -5589.80998 -5589.80998 -5589.80998     0.00000     0.00000     0.00000
  Hartree  2003.12757  2003.12757  2003.12757    -0.00000    -0.00000    -0.00000
  E(xc)   -1591.84110 -1591.84110 -1591.84110     0.00000    -0.00000    -0.00000
  Local   -2403.96489 -2403.96489 -2403.96489    -0.00000    -0.00000     0.00000
  n-local   163.54229   163.54212   163.54228    -0.00004    -0.00003     0.00001
  augment  1808.60540  1808.60540  1808.60540    -0.00000     0.00000     0.00000
  Kinetic  4418.79244  4418.79250  4418.79242     0.00002     0.00000    -0.00001
  Fock        0.00000     0.00000     0.00000     0.00000     0.00000     0.00000
  -------------------------------------------------------------------------------------
  Total      -0.15984    -0.15984    -0.15984    -0.00000     0.00000     0.00000
  in kB      -0.45085    -0.45085    -0.45085    -0.00000     0.00000     0.00000
  external pressure =       -0.45 kB  Pullay stress =        0.00 kB


 VOLUME and BASIS-vectors are now :
 -----------------------------------------------------------------------------
  energy-cutoff  :      355.00
  volume of cell :      568.01
      direct lattice vectors                 reciprocal lattice vectors
     8.281687668 -0.000000000  0.000000000     0.120748335  0.000000000  0.000000000
    -0.000000000  8.281687668  0.000000000     0.000000000  0.120748335  0.000000000
    -0.000000000 -0.000000000  8.281687668     0.000000000  0.000000000  0.120748335

  length of vectors
     8.281687668  8.281687668  8.281687668     0.120748335  0.120748335  0.120748335


 FORCES acting on ions
    electron-ion (+dipol)            ewald-force                    non-local-force                 convergence-correction
 -----------------------------------------------------------------------------------------------
   0.117E-04 0.117E-04 0.710E-06   -.372E-05 -.372E-05 -.372E-05   -.662E-23 -.215E-22 -.165E-22   0.162E-06 0.162E-06 0.162E-06
   -.102E-04 -.102E-04 0.851E-06   -.372E-05 -.372E-05 -.372E-05   -.248E-22 0.827E-24 -.314E-22   0.162E-06 0.162E-06 0.162E-06
   0.102E-04 0.117E-04 -.851E-06   0.372E-05 -.372E-05 0.372E-05   0.420E-32 0.163E-22 -.165E-23   -.162E-06 0.162E-06 -.162E-06
   -.117E-04 -.102E-04 -.710E-06   0.372E-05 -.372E-05 0.372E-05   0.182E-22 -.189E-32 0.662E-23   -.162E-06 0.162E-06 -.162E-06
   0.117E-04 0.102E-04 -.851E-06   -.372E-05 0.372E-05 0.372E-05   0.165E-23 0.165E-23 -.165E-23   0.162E-06 -.162E-06 -.162E-06
   -.102E-04 -.117E-04 -.710E-06   -.372E-05 0.372E-05 0.372E-05   -.281E-22 0.662E-23 0.662E-23   0.162E-06 -.162E-06 -.162E-06
   0.102E-04 0.102E-04 0.710E-06   0.372E-05 0.372E-05 -.372E-05   0.331E-23 -.153E-22 -.331E-23   -.162E-06 -.162E-06 0.162E-06
   -.117E-04 -.117E-04 0.851E-06   0.372E-05 0.372E-05 -.372E-05   0.182E-22 0.993E-23 0.215E-22   -.162E-06 -.162E-06 0.162E-06
   -.196E-04 -.196E-04 -.196E-04   0.936E-04 0.936E-04 0.936E-04   -.146E-21 -.132E-21 -.132E-22   -.568E-06 -.568E-06 -.568E-06
   -.104E-06 -.104E-06 0.194E-04   0.509E-06 0.509E-06 -.926E-04   -.529E-22 0.153E-22 -.207E-21   -.142E-08 -.142E-08 0.565E-06
   -.104E-06 -.104E-06 0.194E-04   0.509E-06 0.509E-06 -.926E-04   -.195E-21 -.199E-22 0.225E-21   -.142E-08 -.142E-08 0.565E-06
   -.104E-06 0.194E-04 -.104E-06   0.509E-06 -.926E-04 0.509E-06   0.794E-22 -.265E-22 -.159E-21   -.142E-08 0.565E-06 -.142E-08
   -.104E-06 0.194E-04 -.104E-06   0.509E-06 -.926E-04 0.509E-06   0.265E-22 0.463E-22 0.109E-21   -.142E-08 0.565E-06 -.142E-08
   0.194E-04 -.104E-06 -.104E-06   -.926E-04 0.509E-06 0.509E-06   -.397E-22 0.232E-22 0.172E-21   0.565E-06 -.142E-08 -.142E-08
   0.194E-04 -.104E-06 -.104E-06   -.926E-04 0.509E-06 0.509E-06   0.132E-22 -.462E-31 -.265E-22   0.565E-06 -.142E-08 -.142E-08
   -.192E-04 0.194E-04 0.194E-04   0.916E-04 -.926E-04 -.926E-04   -.146E-21 0.159E-21 0.159E-21   -.562E-06 0.565E-06 0.565E-06
   0.104E-06 0.104E-06 -.194E-04   -.509E-06 -.509E-06 0.926E-04   0.106E-21 -.662E-23 -.596E-22   0.142E-08 0.142E-08 -.565E-06
   0.104E-06 0.104E-06 -.194E-04   -.509E-06 -.509E-06 0.926E-04   -.106E-21 0.265E-22 -.159E-21   0.142E-08 0.142E-08 -.565E-06
   0.104E-06 -.194E-04 0.104E-06   -.509E-06 0.926E-04 -.509E-06   0.265E-22 -.993E-23 0.212E-21   0.142E-08 -.565E-06 0.142E-08
   0.104E-06 -.194E-04 0.104E-06   -.509E-06 0.926E-04 -.509E-06   0.106E-21 0.199E-22 -.529E-22   0.142E-08 -.565E-06 0.142E-08
   0.194E-04 -.192E-04 0.194E-04   -.926E-04 0.916E-04 -.926E-04   0.185E-21 -.152E-21 0.926E-22   0.565E-06 -.562E-06 0.565E-06
   -.194E-04 0.104E-06 0.104E-06   0.926E-04 -.509E-06 -.509E-06   0.331E-22 0.529E-22 0.106E-21   -.565E-06 0.142E-08 0.142E-08
   -.194E-04 0.104E-06 0.104E-06   0.926E-04 -.509E-06 -.509E-06   0.926E-22 0.245E-21 0.529E-22   -.565E-06 0.142E-08 0.142E-08
   0.194E-04 0.194E-04 -.192E-04   -.926E-04 -.926E-04 0.916E-04   0.199E-21 -.265E-22 0.265E-22   0.565E-06 0.565E-06 -.562E-06
   0.108E+03 0.108E+03 0.108E+03   -.120E+03 -.120E+03 -.120E+03   0.117E+02 0.117E+02 0.117E+02   -.416E-02 -.416E-02 -.416E-02
   -.108E+03 -.108E+03 -.108E+03   0.120E+03 0.120E+03 0.120E+03   -.117E+02 -.117E+02 -.117E+02   0.416E-02 0.416E-02 0.416E-02
   -.108E+03 -.108E+03 0.108E+03   0.120E+03 0.120E+03 -.120E+03   -.117E+02 -.117E+02 0.117E+02   0.415E-02 0.416E-02 -.416E-02
   0.108E+03 0.108E+03 -.108E+03   -.120E+03 -.120E+03 0.120E+03   0.117E+02 0.117E+02 -.117E+02   -.416E-02 -.415E-02 0.416E-02
   -.108E+03 0.108E+03 -.108E+03   0.120E+03 -.120E+03 0.120E+03   -.117E+02 0.117E+02 -.117E+02   0.416E-02 -.416E-02 0.415E-02
   0.108E+03 -.108E+03 0.108E+03   -.120E+03 0.120E+03 -.120E+03   0.117E+02 -.117E+02 0.117E+02   -.415E-02 0.416E-02 -.416E-02
   0.108E+03 -.108E+03 -.108E+03   -.120E+03 0.120E+03 0.120E+03   0.117E+02 -.117E+02 -.117E+02   -.416E-02 0.415E-02 0.416E-02
   -.108E+03 0.108E+03 0.108E+03   0.120E+03 -.120E+03 -.120E+03   -.117E+02 0.117E+02 0.117E+02   0.416E-02 -.416E-02 -.415E-02
   0.108E+03 0.108E+03 -.108E+03   -.120E+03 -.120E+03 0.120E+03   0.117E+02 0.117E+02 -.117E+02   -.415E-02 -.416E-02 0.416E-02
   -.108E+03 -.108E+03 0.108E+03   0.120E+03 0.120E+03 -.120E+03   -.117E+02 -.117E+02 0.117E+02   0.416E-02 0.415E-02 -.416E-02
   0.108E+03 -.108E+03 0.108E+03   -.120E+03 0.120E+03 -.120E+03   0.117E+02 -.117E+02 0.117E+02   -.416E-02 0.416E-02 -.415E-02
   -.108E+03 0.108E+03 -.108E+03   0.120E+03 -.120E+03 0.120E+03   -.117E+02 0.117E+02 -.117E+02   0.415E-02 -.416E-02 0.416E-02
   -.108E+03 0.108E+03 0.108E+03   0.120E+03 -.120E+03 -.120E+03   -.117E+02 0.117E+02 0.117E+02   0.416E-02 -.415E-02 -.416E-02
   0.108E+03 -.108E+03 -.108E+03   -.120E+03 0.120E+03 0.120E+03   0.117E+02 -.117E+02 -.117E+02   -.416E-02 0.416E-02 0.415E-02
   0.108E+03 0.108E+03 0.108E+03   -.120E+03 -.120E+03 -.120E+03   0.117E+02 0.117E+02 0.117E+02   -.416E-02 -.416E-02 -.416E-02
   -.108E+03 -.108E+03 -.108E+03   0.120E+03 0.120E+03 0.120E+03   -.117E+02 -.117E+02 -.117E+02   0.416E-02 0.416E-02 0.416E-02
   -.108E+03 -.108E+03 0.108E+03   0.120E+03 0.120E+03 -.120E+03   -.117E+02 -.117E+02 0.117E+02   0.415E-02 0.415E-02 -.416E-02
   0.108E+03 0.108E+03 -.108E+03   -.120E+03 -.120E+03 0.120E+03   0.117E+02 0.117E+02 -.117E+02   -.416E-02 -.416E-02 0.416E-02
   -.108E+03 0.108E+03 -.108E+03   0.120E+03 -.120E+03 0.120E+03   -.117E+02 0.117E+02 -.117E+02   0.416E-02 -.416E-02 0.416E-02
   0.108E+03 -.108E+03 0.108E+03   -.120E+03 0.120E+03 -.120E+03   0.117E+02 -.117E+02 0.117E+02   -.415E-02 0.416E-02 -.415E-02
   0.108E+03 0.108E+03 -.108E+03   -.120E+03 -.120E+03 0.120E+03   0.117E+02 0.117E+02 -.117E+02   -.415E-02 -.415E-02 0.416E-02
   -.108E+03 -.108E+03 0.108E+03   0.120E+03 0.120E+03 -.120E+03   -.117E+02 -.117E+02 0.117E+02   0.416E-02 0.416E-02 -.416E-02
   0.108E+03 -.108E+03 0.108E+03   -.120E+03 0.120E+03 -.120E+03   0.117E+02 -.117E+02 0.117E+02   -.416E-02 0.416E-02 -.416E-02
   -.108E+03 0.108E+03 -.108E+03   0.120E+03 -.120E+03 0.120E+03   -.117E+02 0.117E+02 -.117E+02   0.415E-02 -.416E-02 0.415E-02
   0.108E+03 0.108E+03 0.108E+03   -.120E+03 -.120E+03 -.120E+03   0.117E+02 0.117E+02 0.117E+02   -.416E-02 -.416E-02 -.416E-02
   -.108E+03 -.108E+03 -.108E+03   0.120E+03 0.120E+03 0.120E+03   -.117E+02 -.117E+02 -.117E+02   0.416E-02 0.416E-02 0.416E-02
   0.108E+03 -.108E+03 -.108E+03   -.120E+03 0.120E+03 0.120E+03   0.117E+02 -.117E+02 -.117E+02   -.416E-02 0.415E-02 0.415E-02
   -.108E+03 0.108E+03 0.108E+03   0.120E+03 -.120E+03 -.120E+03   -.117E+02 0.117E+02 0.117E+02   0.416E-02 -.416E-02 -.416E-02
   -.108E+03 0.108E+03 0.108E+03   0.120E+03 -.120E+03 -.120E+03   -.117E+02 0.117E+02 0.117E+02   0.416E-02 -.415E-02 -.415E-02
   0.108E+03 -.108E+03 -.108E+03   -.120E+03 0.120E+03 0.120E+03   0.117E+02 -.117E+02 -.117E+02   -.416E-02 0.416E-02 0.416E-02
   0.108E+03 0.108E+03 0.108E+03   -.120E+03 -.120E+03 -.120E+03   0.117E+02 0.117E+02 0.117E+02   -.416E-02 -.416E-02 -.416E-02
   -.108E+03 -.108E+03 -.108E+03   0.120E+03 0.120E+03 0.120E+03   -.117E+02 -.117E+02 -.117E+02   0.416E-02 0.416E-02 0.416E-02
 -----------------------------------------------------------------------------------------------
   0.281E-11 0.625E-12 0.395E-10   0.711E-13 -.114E-12 0.426E-13   0.355E-14 0.355E-14 0.711E-14   0.302E-12 0.282E-12 -.712E-11
 
 
 POSITION                                       TOTAL-FORCE (eV/Angst)
 -----------------------------------------------------------------------------------
      1.03521      1.03521      1.03521         0.000000     -0.000000      0.000000
      7.24648      7.24648      7.24648         0.000000     -0.000000      0.000000
      5.17605      1.03521      5.17605        -0.000000     -0.000000      0.000000
      3.10563      7.24648      3.10563        -0.000000     -0.000000      0.000000
      1.03521      5.17605      5.17605         0.000000     -0.000000      0.000000
      7.24648      3.10563      3.10563         0.000000     -0.000000      0.000000
      5.17605      5.17605      1.03521        -0.000000     -0.000000      0.000000
      3.10563      3.10563      7.24648        -0.000000     -0.000000      0.000000
      4.14084      4.14084      4.14084        -0.000000     -0.000000      0.000000
      2.07042      6.21127     -0.00000        -0.000000     -0.000000      0.000000
      6.21127      2.07042     -0.00000         0.000000     -0.000000      0.000000
      6.21127     -0.00000      2.07042         0.000000     -0.000000      0.000000
      2.07042     -0.00000      6.21127        -0.000000     -0.000000      0.000000
     -0.00000      2.07042      6.21127         0.000000     -0.000000      0.000000
     -0.00000      6.21127      2.07042        -0.000000     -0.000000      0.000000
      4.14084     -0.00000     -0.00000         0.000000     -0.000000      0.000000
      2.07042      2.07042      4.14084        -0.000000     -0.000000      0.000000
      6.21127      6.21127      4.14084         0.000000     -0.000000      0.000000
      6.21127      4.14084      6.21127        -0.000000     -0.000000      0.000000
      2.07042      4.14084      2.07042         0.000000     -0.000000      0.000000
     -0.00000      4.14084     -0.00000         0.000000     -0.000000      0.000000
      4.14084      2.07042      2.07042        -0.000000     -0.000000      0.000000
      4.14084      6.21127      6.21127         0.000000     -0.000000      0.000000
     -0.00000     -0.00000      4.14084        -0.000000     -0.000000      0.000000
      2.17982      2.17982      2.17982        -0.000183     -0.000183     -0.000183
      6.10186      6.10186      6.10186         0.000183      0.000183      0.000183
      4.03144      8.17229      6.32067         0.000183      0.000183     -0.000183
      4.25025      0.10940      1.96102        -0.000183     -0.000183      0.000183
      8.17229      6.32067      4.03144         0.000183     -0.000183      0.000183
      0.10940      1.96102      4.25025        -0.000183      0.000183     -0.000183
      6.32067      4.03144      8.17229        -0.000183      0.000183      0.000183
      1.96102      4.25025      0.10940         0.000183     -0.000183     -0.000183
      0.10940      4.25025      1.96102        -0.000183     -0.000183      0.000183
      8.17229      4.03144      6.32067         0.000183      0.000183     -0.000183
      4.25025      1.96102      0.10940        -0.000183      0.000183     -0.000183
      4.03144      6.32067      8.17229         0.000183     -0.000183      0.000183
      1.96102      0.10940      4.25025         0.000183     -0.000183     -0.000183
      6.32067      8.17229      4.03144        -0.000183      0.000183      0.000183
      2.17982      6.32067      6.32067        -0.000183     -0.000183     -0.000183
      6.10186      1.96102      1.96102         0.000183      0.000183      0.000183
      4.03144      4.03144      2.17982         0.000183      0.000183     -0.000183
      4.25025      4.25025      6.10186        -0.000183     -0.000183      0.000183
      8.17229      2.17982      8.17229         0.000183     -0.000183      0.000183
      0.10940      6.10186      0.10940        -0.000183      0.000183     -0.000183
      0.10940      0.10940      6.10186        -0.000183     -0.000183      0.000183
      8.17229      8.17229      2.17982         0.000183      0.000183     -0.000183
      4.25025      6.10186      4.25025        -0.000183      0.000183     -0.000183
      4.03144      2.17982      4.03144         0.000183     -0.000183      0.000183
      6.32067      2.17982      6.32067        -0.000183     -0.000183     -0.000183
      1.96102      6.10186      1.96102         0.000183      0.000183      0.000183
      2.17982      4.03144      4.03144        -0.000183      0.000183      0.000183
      6.10186      4.25025      4.25025         0.000183     -0.000183     -0.000183
      6.10186      0.10940      0.10940         0.000183     -0.000183     -0.000183
      2.17982      8.17229      8.17229        -0.000183      0.000183      0.000183
      6.32067      6.32067      2.17982        -0.000183     -0.000183     -0.000183
      1.96102      1.96102      6.10186         0.000183      0.000183      0.000183
 -----------------------------------------------------------------------------------
    total drift:                                0.000000      0.000000      0.000000


--------------------------------------------------------------------------------------------------------



  FREE ENERGIE OF THE ION-ELECTRON SYSTEM (eV)
  ---------------------------------------------------
  free  energy   TOTEN  =      -421.28712480 eV

  energy  without entropy=     -421.43462744  energy(sigma->0) =     -421.33629235
 
 d Force = 0.1764699E-03[ 0.617E-05, 0.347E-03]  d Energy = 0.6672843E-03-0.491E-03
 d Force = 0.4039552E+01[ 0.404E+01, 0.404E+01]  d Ewald  =-0.2210343E+01 0.625E+01


--------------------------------------------------------------------------------------------------------


    POTLOK:  cpu time    0.05: real time    0.05


--------------------------------------------------------------------------------------------------------




--------------------------------------------------------------------------------------------------------


  
 reached required accuracy - stopping structural energy minimisation
     LOOP+:  cpu time    3.93: real time    3.97
    4ORBIT:  cpu time    0.00: real time    0.00

 total amount of memory used by VASP on root node    40861. kBytes
========================================================================

   base      :      30000. kBytes
   nonlr-proj:       2550. kBytes
   fftplans  :       1014. kBytes
   grid      :       2594. kBytes
   one-center:        435. kBytes
   wavefun   :       4268. kBytes
 
  
  
 General timing and accounting informations for this job:
 ========================================================
  
                  Total CPU time used (sec):       24.449
                            User time (sec):       23.440
                          System time (sec):        1.009
                         Elapsed time (sec):       25.381
  
                   Maximum memory used (kb):       58460.
                   Average memory used (kb):           0.
  
                          Minor page faults:        57036
                          Major page faults:            0
                 Voluntary context switches:         2057
